<LesHouchesEvents version="1.0">
<!--
file generated with POWHEG-BOX version 1.0
Input file powheg.input contained:
! Production parameter for VBF Z production
idvecbos 23     ! PDG code for vector boson to be produced ( Z:23 )
vdecaymode -13  ! PDG code for charged decay product of vector boson (-11:e+;-13 mu+ ...)
zmass 91.188d0  ! mass of the Z boson [GeV]
wmass 80.419d0  ! mass of the W boson [GeV]
zerowidth 1       ! 0 (offshell Zs); if 1 generate Zs on shell
numevts 1000      ! number of events to be generated
ih1   1           ! hadron 1 (1 for protons, -1 for antiprotons)
ih2   1           ! hadron 2 (1 for protons, -1 for antiprotons)
!ndns1 131        ! pdf set for hadron 1 (mlm numbering)
!ndns2 131        ! pdf set for hadron 2 (mlm numbering)
ebeam1 6500d0     ! energy of beam 1
ebeam2 6500d0     ! energy of beam 2
! To be set only if using LHA pdfs
! 10050 cteq6m
! 10042 cteq6l with LO alphas (corr. to vbfnlo LO set)
! 10041 cteq6l with NLO alphas
! 21000 MSTW2008 LO
! 21100 MSTW2008 NLO
lhans1  21100     ! pdf set for hadron 1 (LHA numbering)
lhans2  21100     ! pdf set for hadron 2 (LHA numbering)
! To be set only if using different pdf sets for the two incoming hadrons
! QCDLambda5  0.25 ! for not equal pdf sets
 
! Parameters to allow or not the use of stored data
use-old-grid    1 ! if 1 use old grid if file pwggrids.dat is present (<> 1 regenerate)
use-old-ubound  1 ! if 1 use norm of upper bounding function stored in pwgubound.dat, if present; <>
 
ncall1  3000000 ! number of calls for initializing the integration grid
itmx1    3      ! number of iterations for initializing the integration grid
ncall2  5000  ! number of calls for computing the integral and finding upper bound
itmx2    1      ! number of iterations for computing the integral and finding upper bound
foldcsi   5     ! number of folds on csi integration
foldy     5     ! number of folds on  y  integration
foldphi   10    ! number of folds on phi integration
nubound  100000       ! number of bbarra calls to setup norm of upper bounding function
icsimax  1      ! <= 100, number of csi subdivision when computing the upper bounds
iymax    1      ! <= 100, number of y subdivision when computing the upper bounds
xupbound 2d0    ! increase upper bound for radiation generation
 
! OPTIONAL PARAMETERS
 
#renscfact  1d0   ! (default 1d0) ren scale factor: muren  = muref * renscfact
#facscfact  1d0   ! (default 1d0) fac scale factor: mufact = muref * facscfact
bornonly   0      ! (default 0) if 1 do Born only
smartsig   1      ! (default 1) remember equal amplitudes (0 do not remember)
#withsubtr  0      ! (default 1) subtract real counterterms (0 do not subtract)
withdamp    1      ! (default 0, do not use) use Born-zero damping factor
bornsuppfact 1     ! (default 0, do not use) use Born suppression factor
mll_gencut  30d0   ! mll generation cut
#ptsqmin    0.8    ! (default 0.8 GeV) minimum pt for generation of radiation
#charmthr   1.5    ! (default 1.5 GeV) charm treshold for gluon splitting
#bottomthr  5.0    ! (default 5.0 GeV) bottom treshold for gluon splitting
testplots  1      ! (default 0, do not) do NLO and PWHG distributions
#hfact    100d0    ! (default no dumping factor) dump factor for high-pt radiation: > 0 dumpfac=h**2
#testsuda  1       ! (default 0, do not test) test Sudakov form factor
#radregion 1       ! (default all regions) only generate radiation in the selected singular region
#charmthrpdf  1.5  ! (default 1.5 GeV) pdf charm treshold
#bottomthrpdf 5.0  ! (default 5.0 GeV) pdf bottom treshold
 
#iseed    12345    ! initialize random number sequence
#rand1     -1      ! initialize random number sequence
#rand2     -1      ! initialize random number sequence
 
#iupperisr 1 ! (default 1) choice of ISR upper bounding functional form
#iupperfsr 2 ! (default 2) choice of FSR upper bounding functional form
 
 
manyseeds  1       ! Used to perform multiple runs with different random
                   ! seeds in the same directory.
                   ! If set to 1, the program asks for an integer j;
                   ! The file pwgseeds.dat at line j is read, and the
                   ! integer at line j is used to initialize the random
                   ! sequence for the generation of the event.
                   ! The event file is called pwgevents-'j'.lhe
 
 
!#fakevirt 1	   ! uses Born for determining virt. grid
withnegweights 1   ! default 1 allow negative weights
 
runningscales 0	   ! default 0 (no running scales); 1 or 2 use running scales
btlscalereal  1	   ! flag for running scales
btlscalect 1       ! flag for running scales
End of powheg.input content
PDF package: lha
 Random number generator initialized with:           10             0             0
-->
<init>
     2212     2212  6.50000E+03  6.50000E+03     -1     -1     -1     -1     -4      1
 -1.00000E+00 -1.00000E+00  1.00000E+00  10001
</init>
<event>
      8  10001  1.42441E-02  7.86412E+01 -1.00000E+00  1.31298E-01
       1    -1     0     0   501     0  0.000000000E+00  0.000000000E+00  3.964104584E+02  3.964104584E+02  0.000000000E+00  0.00000E+00  9.000E+00
      -1    -1     0     0     0   502  0.000000000E+00  0.000000000E+00 -7.885024793E+02  7.885024793E+02  0.000000000E+00  0.00000E+00  9.000E+00
      23     2     1     2     0     0  1.022880157E+02 -1.751812424E+02 -7.051951012E+02  7.394367369E+02  9.118800000E+01  0.00000E+00  9.000E+00
     -13     1     3     3     0     0 -5.947650926E-01  1.024156893E+01 -3.744968126E+01  3.882954132E+01  1.057000000E-01  0.00000E+00  9.000E+00
      13     1     3     3     0     0  1.028827808E+02 -1.854228113E+02 -6.677454199E+02  7.006071956E+02  1.057000000E-01  0.00000E+00  9.000E+00
       2     1     1     2   501     0 -9.797745733E+01  1.726586349E+02  3.236916409E+02  3.797195987E+02  3.300000000E-01  0.00000E+00  9.000E+00
      -2     1     1     2     0   511  1.193677637E+01 -8.240019752E+00 -3.300493295E+01  3.605300340E+01  3.300000000E-01  0.00000E+00  9.000E+00
      21     1     1     2   511   502 -1.624733472E+01  1.076262725E+01  2.241637228E+01  2.970359872E+01  1.951540177E-06  0.00000E+00  9.000E+00
</event>
<event>
      8  10001  1.05388E-02  4.84172E+02 -1.00000E+00  1.00765E-01
       1    -1     0     0   501     0  0.000000000E+00  0.000000000E+00  9.046278363E+02  9.046278363E+02  0.000000000E+00  0.00000E+00  9.000E+00
       2    -1     0     0   502     0  0.000000000E+00  0.000000000E+00 -7.961143263E+02  7.961143263E+02  0.000000000E+00  0.00000E+00  9.000E+00
      23     2     1     2     0     0 -4.879816765E+02 -4.977975120E+01 -3.072878862E+02  5.859566849E+02  9.118800000E+01  0.00000E+00  9.000E+00
     -13     1     3     3     0     0 -1.878081958E+02 -4.296572986E+01 -7.664935174E+01  2.073477915E+02  1.057000000E-01  0.00000E+00  9.000E+00
      13     1     3     3     0     0 -3.001734807E+02 -6.814021345E+00 -2.306385344E+02  3.786088934E+02  1.057000000E-01  0.00000E+00  9.000E+00
       2     1     1     2   501     0  5.516546864E+02  1.525909678E+02  2.548503240E+02  6.265426506E+02  3.300000000E-01  0.00000E+00  9.000E+00
       1     1     1     2   512     0 -2.143668357E+02  3.085452326E+01 -1.996227683E+01  2.174942372E+02  3.300000000E-01  0.00000E+00  9.000E+00
      21     1     1     2   502   512  1.506938258E+02 -1.336657398E+02  1.809133489E+02  2.707485899E+02  5.394796609E-06  0.00000E+00  9.000E+00
</event>
<event>
      8  10001  1.18386E-02  2.56968E+02 -1.00000E+00  1.09619E-01
       2    -1     0     0   501     0  0.000000000E+00  0.000000000E+00  2.895566174E+02  2.895566174E+02  0.000000000E+00  0.00000E+00  9.000E+00
       2    -1     0     0   502     0  0.000000000E+00  0.000000000E+00 -1.225883009E+03  1.225883009E+03  0.000000000E+00  0.00000E+00  9.000E+00
      23     2     1     2     0     0 -5.091954077E+01  6.601593789E+01 -6.267837938E+02  6.388458963E+02  9.118800000E+01  0.00000E+00  9.000E+00
     -13     1     3     3     0     0 -6.242988979E+01  4.553971473E+01 -5.910676413E+02  5.960975797E+02  1.057000000E-01  0.00000E+00  9.000E+00
      13     1     3     3     0     0  1.151034902E+01  2.047622316E+01 -3.571615253E+01  4.274831661E+01  1.057000000E-01  0.00000E+00  9.000E+00
       2     1     1     2   501     0  8.658936159E+01 -8.251802060E+01  2.620054271E+02  2.880171765E+02  3.300000000E-01  0.00000E+00  9.000E+00
       2     1     1     2   511     0 -5.649534904E+01 -3.078445321E+00 -9.084208414E+01  1.070214672E+02  3.300000000E-01  0.00000E+00  9.000E+00
      21     1     1     2   502   511  2.082552822E+01  1.958052803E+01 -4.807059409E+02  4.815550865E+02  9.344061824E-06  0.00000E+00  9.000E+00
</event>
<event>
      8  10001  9.26694E-02  3.86898E+00 -1.00000E+00  2.78968E-01
       2    -1     0     0   501     0  0.000000000E+00  0.000000000E+00  6.703867274E+02  6.703867274E+02  0.000000000E+00  0.00000E+00  9.000E+00
      -2    -1     0     0     0   502  0.000000000E+00  0.000000000E+00 -2.355485195E+01  2.355485195E+01  0.000000000E+00  0.00000E+00  9.000E+00
      23     2     1     2     0     0  6.119674727E+01 -7.936044953E+01  4.834842068E+02  5.021108965E+02  9.118800000E+01  0.00000E+00  9.000E+00
     -13     1     3     3     0     0  8.485020072E+01 -6.819103379E+01  4.054749184E+02  4.198326980E+02  1.057000000E-01  0.00000E+00  9.000E+00
      13     1     3     3     0     0 -2.365345344E+01 -1.116941574E+01  7.800928835E+01  8.227819850E+01  1.057000000E-01  0.00000E+00  9.000E+00
       2     1     1     2   501     0 -5.678553081E+01  7.403257880E+01  1.508309545E+02  1.773569986E+02  3.300000000E-01  0.00000E+00  9.000E+00
      -2     1     1     2     0   512 -5.737817780E-01  1.002421055E+00  9.121942231E-01  1.508334114E+00  3.300000000E-01  0.00000E+00  9.000E+00
      21     1     1     2   512   502 -3.837434684E+00  4.325449675E+00  1.160452002E+01  1.296535016E+01  4.129530925E-07  0.00000E+00  9.000E+00
</event>
<event>
      8  10001  1.05627E-02  1.96762E+02 -1.00000E+00  1.13845E-01
       2    -1     0     0   501     0  0.000000000E+00  0.000000000E+00  2.113690268E+03  2.113690268E+03  0.000000000E+00  0.00000E+00  9.000E+00
       1    -1     0     0   502     0  0.000000000E+00  0.000000000E+00 -7.776504121E+01  7.776504121E+01  0.000000000E+00  0.00000E+00  9.000E+00
      23     2     1     2     0     0 -7.557097575E+01 -3.849321103E+00  9.234452032E+01  1.502283310E+02  9.118800000E+01  0.00000E+00  9.000E+00
     -13     1     3     3     0     0 -4.337710666E+01  1.666563278E+01  1.009180520E+02  1.111025702E+02  1.057000000E-01  0.00000E+00  9.000E+00
      13     1     3     3     0     0 -3.219386909E+01 -2.051495388E+01 -8.573531718E+00  3.912576080E+01  1.057000000E-01  0.00000E+00  9.000E+00
       1     1     1     2   511     0 -1.027194446E+02  1.356495614E+02  5.985555445E+02  6.222707904E+02  3.300000000E-01  0.00000E+00  9.000E+00
       2     1     1     2   502     0  2.046987577E+02 -1.496533885E+02  1.360212787E+03  1.383646145E+03  3.300000000E-01  0.00000E+00  9.000E+00
      21     1     1     2   501   511 -2.640833734E+01  1.785314818E+01 -1.518762537E+01  3.531004312E+01  4.620032877E-06  0.00000E+00  9.000E+00
</event>
<event>
      8  10001  1.08537E-02  2.43451E+02 -1.00000E+00  1.10449E-01
       2    -1     0     0   501     0  0.000000000E+00  0.000000000E+00  4.027883859E+01  4.027883859E+01  0.000000000E+00  0.00000E+00  9.000E+00
       4    -1     0     0   502     0  0.000000000E+00  0.000000000E+00 -1.931870247E+03  1.931870247E+03  0.000000000E+00  0.00000E+00  9.000E+00
      23     2     1     2     0     0 -3.693336755E+01 -3.767503927E+01 -1.301275168E+02  1.674273102E+02  9.118800000E+01  0.00000E+00  9.000E+00
     -13     1     3     3     0     0 -6.283583392E+01 -6.876888161E+00 -6.356033025E+01  8.964128719E+01  1.057000000E-01  0.00000E+00  9.000E+00
      13     1     3     3     0     0  2.590246637E+01 -3.079815111E+01 -6.656718652E+01  7.778602297E+01  1.057000000E-01  0.00000E+00  9.000E+00
       2     1     1     2   511     0  4.572434929E+01  1.053749560E+02 -1.317154271E+03  1.322153576E+03  3.300000000E-01  0.00000E+00  9.000E+00
       4     1     1     2   502     0  6.768773900E-01 -4.873261737E+01 -4.558371562E+02  4.584376611E+02  1.500000000E+00  0.00000E+00  9.000E+00
      21     1     1     2   501   511 -9.467859126E+00 -1.896729932E+01  1.152753523E+01  2.413053809E+01  7.970101667E-06  0.00000E+00  9.000E+00
</event>
<event>
      8  10001  1.43878E-02  4.82436E+01 -1.00000E+00  1.43045E-01
      -3    -1     0     0     0   501  0.000000000E+00  0.000000000E+00  2.679198926E+01  2.679198926E+01  0.000000000E+00  0.00000E+00  9.000E+00
       2    -1     0     0   502     0  0.000000000E+00  0.000000000E+00 -8.377569665E+02  8.377569665E+02  0.000000000E+00  0.00000E+00  9.000E+00
      23     2     1     2     0     0 -1.716829345E+00 -2.243470777E+01 -7.533316944E+02  7.591641171E+02  9.118800000E+01  0.00000E+00  9.000E+00
     -13     1     3     3     0     0  6.268506687E+00  3.506300822E+01 -3.140524516E+02  3.160659145E+02  1.057000000E-01  0.00000E+00  9.000E+00
      13     1     3     3     0     0 -7.985336033E+00 -5.749771598E+01 -4.392792427E+02  4.430982027E+02  1.057000000E-01  0.00000E+00  9.000E+00
      -3     1     1     2     0   511  1.073082396E+00  6.078986004E-01 -6.969552003E-01  1.502262656E+00  5.000000000E-01  0.00000E+00  9.000E+00
       2     1     1     2   502     0  2.966173162E+01  2.778940470E+01 -1.085544965E+00  4.066148846E+01  3.300000000E-01  0.00000E+00  9.000E+00
      21     1     1     2   511   501 -2.901798467E+01 -5.962595534E+00 -5.585078269E+01  6.322108752E+01  1.348699152E-06  0.00000E+00  9.000E+00
</event>
<event>
      8  10001  1.65352E-02  1.70892E+02 -1.00000E+00  1.16213E-01
       4    -1     0     0   501     0  0.000000000E+00  0.000000000E+00  9.505898974E+01  9.505898974E+01  0.000000000E+00  0.00000E+00  9.000E+00
       2    -1     0     0   502     0  0.000000000E+00  0.000000000E+00 -8.467045260E+02  8.467045260E+02  0.000000000E+00  0.00000E+00  9.000E+00
      23     2     1     2     0     0  5.706021399E+01  8.668004005E+01  5.101529251E+00  1.382410008E+02  9.118800000E+01  0.00000E+00  9.000E+00
     -13     1     3     3     0     0  3.863371121E+01 -9.785055878E+00 -7.079611040E-01  3.986004694E+01  1.057000000E-01  0.00000E+00  9.000E+00
      13     1     3     3     0     0  1.842650278E+01  9.646509593E+01  5.809490354E+00  9.838095389E+01  1.057000000E-01  0.00000E+00  9.000E+00
       4     1     1     2   511     0  6.216108296E+00 -7.256695091E+00 -1.480986747E+02  1.484141741E+02  1.500000000E+00  0.00000E+00  9.000E+00
       2     1     1     2   502     0  8.672350424E+00 -6.119320926E+00 -5.180177286E+02  5.181265596E+02  3.300000000E-01  0.00000E+00  9.000E+00
      21     1     1     2   501   511 -7.194867271E+01 -7.330402403E+01 -9.063066217E+01  1.369817812E+02  3.015782986E-06  0.00000E+00  9.000E+00
</event>
<event>
      8  10001  1.11616E-02  2.40091E+02 -1.00000E+00  1.10664E-01
       1    -1     0     0   501     0  0.000000000E+00  0.000000000E+00  4.898613578E+01  4.898613578E+01  0.000000000E+00  0.00000E+00  9.000E+00
       2    -1     0     0   502     0  0.000000000E+00  0.000000000E+00 -1.955311088E+03  1.955311088E+03  0.000000000E+00  0.00000E+00  9.000E+00
      23     2     1     2     0     0 -9.366560648E+01 -7.032197447E+01 -2.831915402E+02  3.197360251E+02  9.118800000E+01  0.00000E+00  9.000E+00
     -13     1     3     3     0     0 -7.217321424E+01  2.605938567E+00 -1.460100527E+02  1.628947834E+02  1.057000000E-01  0.00000E+00  9.000E+00
      13     1     3     3     0     0 -2.149239224E+01 -7.292791304E+01 -1.371814875E+02  1.568412417E+02  1.057000000E-01  0.00000E+00  9.000E+00
       2     1     1     2   501     0  7.446022568E+01  9.016932673E+01 -1.094861457E+03  1.101088803E+03  3.300000000E-01  0.00000E+00  9.000E+00
       1     1     1     2   511     0  8.625735075E+01 -1.020618357E+02 -3.656649116E+02  3.893172040E+02  3.300000000E-01  0.00000E+00  9.000E+00
      21     1     1     2   502   511 -6.705196995E+01  8.221448343E+01 -1.626070429E+02  1.941551915E+02  1.907348633E-06  0.00000E+00  9.000E+00
</event>
<event>
      8  10001  1.06013E-02  1.62848E+02 -1.00000E+00  1.17046E-01
       2    -1     0     0   501     0  0.000000000E+00  0.000000000E+00  7.688166103E+02  7.688166103E+02  0.000000000E+00  0.00000E+00  9.000E+00
       1    -1     0     0   502     0  0.000000000E+00  0.000000000E+00 -1.450637103E+02  1.450637103E+02  0.000000000E+00  0.00000E+00  9.000E+00
      23     2     1     2     0     0 -1.158767851E+01  5.006244265E+01  4.024489326E+02  4.158376091E+02  9.118800000E+01  0.00000E+00  9.000E+00
     -13     1     3     3     0     0 -3.734200945E+01  9.825897639E+00  6.973773391E+01  7.971409309E+01  1.057000000E-01  0.00000E+00  9.000E+00
      13     1     3     3     0     0  2.575433094E+01  4.023654501E+01  3.327111987E+02  3.361235160E+02  1.057000000E-01  0.00000E+00  9.000E+00
       1     1     1     2   501     0 -6.795020199E+01 -1.353081533E+02  6.608315591E+00  1.515562768E+02  3.300000000E-01  0.00000E+00  9.000E+00
       2     1     1     2   512     0  1.320590645E+02  1.002193975E+02  5.028209992E+01  1.732394950E+02  3.300000000E-01  0.00000E+00  9.000E+00
      21     1     1     2   502   512 -5.252118400E+01 -1.497368689E+01  1.644135519E+02  1.732469397E+02  3.303624740E-06  0.00000E+00  9.000E+00
</event>
<event>
      8  10001  1.05472E-02  3.40852E+02 -1.00000E+00  1.05482E-01
       2    -1     0     0   501     0  0.000000000E+00  0.000000000E+00  9.059335097E+02  9.059335097E+02  0.000000000E+00  0.00000E+00  9.000E+00
       1    -1     0     0   502     0  0.000000000E+00  0.000000000E+00 -4.482535991E+02  4.482535991E+02  0.000000000E+00  0.00000E+00  9.000E+00
      23     2     1     2     0     0 -2.569002149E+02 -1.674318496E+00 -6.790556790E+01  2.809393907E+02  9.118800000E+01  0.00000E+00  9.000E+00
     -13     1     3     3     0     0 -1.629458816E+02 -2.652930125E+01 -4.992327120E+00  1.651668812E+02  1.057000000E-01  0.00000E+00  9.000E+00
      13     1     3     3     0     0 -9.395433334E+01  2.485498275E+01 -6.291324078E+01  1.157725095E+02  1.057000000E-01  0.00000E+00  9.000E+00
       2     1     1     2   501     0  4.627601633E+02  6.161017290E+01  5.467537681E+01  4.700343476E+02  3.300000000E-01  0.00000E+00  9.000E+00
       1     1     1     2   511     0 -2.106834284E+02 -2.098229830E+01  1.070642164E+02  2.372564418E+02  3.300000000E-01  0.00000E+00  9.000E+00
      21     1     1     2   502   511  4.823479977E+00 -3.895355610E+01  3.638458852E+02  3.659569288E+02  0.000000000E+00  0.00000E+00  9.000E+00
</event>
<event>
      8  10001  1.25546E-02  6.46786E+01 -1.00000E+00  1.35752E-01
       1    -1     0     0   501     0  0.000000000E+00  0.000000000E+00  3.330890761E+02  3.330890761E+02  0.000000000E+00  0.00000E+00  9.000E+00
      -3    -1     0     0     0   502  0.000000000E+00  0.000000000E+00 -2.004275349E+02  2.004275349E+02  0.000000000E+00  0.00000E+00  9.000E+00
      23     2     1     2     0     0 -7.881452793E+01  8.694661419E+01  2.830727122E+02  3.197137083E+02  9.118800000E+01  0.00000E+00  9.000E+00
     -13     1     3     3     0     0  8.495636624E+00 -5.874781117E-01 -2.205395200E+00  8.797494680E+00  1.057000000E-01  0.00000E+00  9.000E+00
      13     1     3     3     0     0 -8.731016456E+01  8.753409230E+01  2.852781074E+02  3.109162137E+02  1.057000000E-01  0.00000E+00  9.000E+00
       1     1     1     2   512     0  3.698142969E+01 -7.322991934E+01 -4.037279789E+01  9.143477970E+01  3.300000000E-01  0.00000E+00  9.000E+00
      -3     1     1     2     0   502  3.334148408E+01 -1.456119619E+01 -5.062133317E+01  6.234141775E+01  5.000000000E-01  0.00000E+00  9.000E+00
      21     1     1     2   501   512  8.491614166E+00  8.445013324E-01 -5.941704004E+01  6.002670523E+01  2.939421655E-06  0.00000E+00  9.000E+00
</event>
<event>
      8  10001  1.35250E-02  4.91351E+01 -1.00000E+00  1.42566E-01
       2    -1     0     0   501     0  0.000000000E+00  0.000000000E+00  9.645232373E+00  9.645232373E+00  0.000000000E+00  0.00000E+00  9.000E+00
       2    -1     0     0   502     0  0.000000000E+00  0.000000000E+00 -2.059665961E+03  2.059665961E+03  0.000000000E+00  0.00000E+00  9.000E+00
      23     2     1     2     0     0  2.419497726E+01  7.981934829E+01 -4.590864915E+02  4.754284208E+02  9.118800000E+01  0.00000E+00  9.000E+00
     -13     1     3     3     0     0  1.594845637E+01  4.196659560E+00 -2.846373026E+02  2.851146619E+02  1.057000000E-01  0.00000E+00  9.000E+00
      13     1     3     3     0     0  8.246520892E+00  7.562268873E+01 -1.744491889E+02  1.903137589E+02  1.057000000E-01  0.00000E+00  9.000E+00
       2     1     1     2   501     0 -1.159369553E+01 -5.528933250E+01 -9.261196058E+02  9.278410193E+02  3.300000000E-01  0.00000E+00  9.000E+00
       2     1     1     2   511     0  5.045626403E+00  2.818638277E+00 -2.025454411E+02  2.026281512E+02  3.300000000E-01  0.00000E+00  9.000E+00
      21     1     1     2   502   511 -1.764690814E+01 -2.734865407E+01 -4.622691900E+02  4.634136017E+02  9.344061824E-06  0.00000E+00  9.000E+00
</event>
<event>
      8  10001  1.21286E-02  6.13572E+01 -1.00000E+00  1.37006E-01
      -1    -1     0     0     0   501  0.000000000E+00  0.000000000E+00  3.541672015E+01  3.541672015E+01  0.000000000E+00  0.00000E+00  9.000E+00
       1    -1     0     0   502     0  0.000000000E+00  0.000000000E+00 -1.083181322E+03  1.083181322E+03  0.000000000E+00  0.00000E+00  9.000E+00
      23     2     1     2     0     0  7.637957699E+01 -6.918151514E+01 -9.203381730E+02  9.305683886E+02  9.118800000E+01  0.00000E+00  9.000E+00
     -13     1     3     3     0     0  3.880582616E+01 -7.953829238E+01 -7.770703671E+02  7.820937276E+02  1.057000000E-01  0.00000E+00  9.000E+00
      13     1     3     3     0     0  3.757375083E+01  1.035677724E+01 -1.432678058E+02  1.484746610E+02  1.057000000E-01  0.00000E+00  9.000E+00
      -1     1     1     2     0   501 -4.452874683E+01  3.433608578E+01 -9.953678651E+01  1.143217252E+02  3.300000000E-01  0.00000E+00  9.000E+00
       1     1     1     2   512     0 -1.184290080E+01  3.606106573E+01 -3.578295292E+01  5.216496315E+01  3.300000000E-01  0.00000E+00  9.000E+00
      21     1     1     2   502   512 -2.000792937E+01 -1.215636373E+00  7.893310401E+00  2.154296541E+01  2.409384600E-06  0.00000E+00  9.000E+00
</event>
<event>
      8  10001  1.06700E-02  3.51557E+02 -1.00000E+00  1.05049E-01
       1    -1     0     0   501     0  0.000000000E+00  0.000000000E+00  1.074260452E+02  1.074260452E+02  0.000000000E+00  0.00000E+00  9.000E+00
       2    -1     0     0   502     0  0.000000000E+00  0.000000000E+00 -2.333720037E+03  2.333720037E+03  0.000000000E+00  0.00000E+00  9.000E+00
      23     2     1     2     0     0 -3.380239944E+02  3.289538865E+01 -9.064003315E+02  9.722238116E+02  9.118800000E+01  0.00000E+00  9.000E+00
     -13     1     3     3     0     0 -1.163323969E+02 -1.131256357E+01 -2.137612417E+02  2.436289808E+02  1.057000000E-01  0.00000E+00  9.000E+00
      13     1     3     3     0     0 -2.216915975E+02  4.420795222E+01 -6.926390899E+02  7.285948308E+02  1.057000000E-01  0.00000E+00  9.000E+00
       2     1     1     2   501     0  4.145940952E+02  6.248216831E+00 -1.130481924E+03  1.204124908E+03  3.300000000E-01  0.00000E+00  9.000E+00
       1     1     1     2   511     0 -5.489358577E+00  2.548678242E+01 -1.631247306E+02  1.651953261E+02  3.300000000E-01  0.00000E+00  9.000E+00
      21     1     1     2   502   511 -7.108074221E+01 -6.463038789E+01 -2.628700488E+01  9.960203601E+01  5.068848521E-06  0.00000E+00  9.000E+00
</event>
<event>
      8  10001  1.28854E-02  4.63329E+01 -1.00000E+00  1.44115E-01
       2    -1     0     0   501     0  0.000000000E+00  0.000000000E+00  8.999658758E+02  8.999658758E+02  0.000000000E+00  0.00000E+00  9.000E+00
       2    -1     0     0   502     0  0.000000000E+00  0.000000000E+00 -2.624675424E+01  2.624675424E+01  0.000000000E+00  0.00000E+00  9.000E+00
      23     2     1     2     0     0 -4.223848375E+01  1.696464518E+01  6.493675533E+02  6.573167876E+02  9.118800000E+01  0.00000E+00  9.000E+00
     -13     1     3     3     0     0 -6.492030489E+01 -9.149960689E+00  4.796740846E+02  4.841338724E+02  1.057000000E-01  0.00000E+00  9.000E+00
      13     1     3     3     0     0  2.268182114E+01  2.611460587E+01  1.696934686E+02  1.731829152E+02  1.057000000E-01  0.00000E+00  9.000E+00
       2     1     1     2   501     0  3.178449592E+01  1.247831257E+01 -8.972021709E-01  3.415957168E+01  3.300000000E-01  0.00000E+00  9.000E+00
       2     1     1     2   512     0  7.199408439E+00 -3.835514388E+01  7.835169311E+01  8.753310949E+01  3.300000000E-01  0.00000E+00  9.000E+00
      21     1     1     2   502   512  3.254579388E+00  8.912186138E+00  1.468970774E+02  1.472031613E+02  1.907348633E-06  0.00000E+00  9.000E+00
</event>
<event>
      8  10001  1.55654E-02  5.36192E+01 -1.00000E+00  1.40326E-01
       2    -1     0     0   501     0  0.000000000E+00  0.000000000E+00  1.200086809E+02  1.200086809E+02  0.000000000E+00  0.00000E+00  9.000E+00
      -2    -1     0     0     0   502  0.000000000E+00  0.000000000E+00 -9.832055420E+01  9.832055420E+01  0.000000000E+00  0.00000E+00  9.000E+00
      23     2     1     2     0     0 -1.061250222E+01  6.960600447E+01  3.042572420E+01  1.191578663E+02  9.118800000E+01  0.00000E+00  9.000E+00
     -13     1     3     3     0     0 -6.471102328E+00  3.366622329E+01 -3.207100546E+01  4.694518420E+01  1.057000000E-01  0.00000E+00  9.000E+00
      13     1     3     3     0     0 -4.141399895E+00  3.593978118E+01  6.249672966E+01  7.221268209E+01  1.057000000E-01  0.00000E+00  9.000E+00
       1     1     1     2   511     0 -9.744996107E+00 -1.484631919E+01  2.398774456E+01  2.984793011E+01  3.300000000E-01  0.00000E+00  9.000E+00
      -1     1     1     2     0   502  2.595573829E+00 -2.664395651E+01 -2.112176680E+01  3.410095826E+01  3.300000000E-01  0.00000E+00  9.000E+00
      21     1     1     2   501   511  1.776192450E+01 -2.811572877E+01 -1.160357530E+01  3.522248041E+01  1.625797951E-06  0.00000E+00  9.000E+00
</event>
<event>
      8  10001  1.91642E-02  1.45945E+01 -1.00000E+00  1.83630E-01
      -2    -1     0     0     0   501  0.000000000E+00  0.000000000E+00  2.903485900E+02  2.903485900E+02  0.000000000E+00  0.00000E+00  9.000E+00
       2    -1     0     0   502     0  0.000000000E+00  0.000000000E+00 -4.404490748E+02  4.404490748E+02  0.000000000E+00  0.00000E+00  9.000E+00
      23     2     1     2     0     0 -2.616763882E+02 -2.032663495E+02 -1.668660166E+02  3.820356787E+02  9.118800000E+01  0.00000E+00  9.000E+00
     -13     1     3     3     0     0 -2.558910151E+02 -2.119555992E+02 -1.563588986E+02  3.672240514E+02  1.057000000E-01  0.00000E+00  9.000E+00
      13     1     3     3     0     0 -5.785373172E+00  8.689249668E+00 -1.050711800E+01  1.481162731E+01  1.057000000E-01  0.00000E+00  9.000E+00
      -1     1     1     2     0   501  2.536725481E+02  2.112332504E+02  1.496034636E+01  3.304438963E+02  3.300000000E-01  0.00000E+00  9.000E+00
       1     1     1     2   511     0  5.992854497E+00 -6.170868873E+00 -5.712652309E+00  1.033137087E+01  3.300000000E-01  0.00000E+00  9.000E+00
      21     1     1     2   502   511  2.010985655E+00 -1.796031971E+00  7.517837797E+00  7.986718932E+00  1.685873940E-07  0.00000E+00  9.000E+00
</event>
<event>
      8  10001  1.17314E-02  1.14976E+02 -1.00000E+00  1.23445E-01
       1    -1     0     0   501     0  0.000000000E+00  0.000000000E+00  5.030762909E+02  5.030762909E+02  0.000000000E+00  0.00000E+00  9.000E+00
       4    -1     0     0   502     0  0.000000000E+00  0.000000000E+00 -4.265647888E+01  4.265647888E+01  0.000000000E+00  0.00000E+00  9.000E+00
      23     2     1     2     0     0  5.003994185E+01 -8.767116524E+01  1.558366204E+02  2.068587262E+02  9.118800000E+01  0.00000E+00  9.000E+00
     -13     1     3     3     0     0  2.061715304E+01  1.712290134E+01  2.483150070E+01  3.653594599E+01  1.057000000E-01  0.00000E+00  9.000E+00
      13     1     3     3     0     0  2.942278881E+01 -1.047940666E+02  1.310051197E+02  1.703227802E+02  1.057000000E-01  0.00000E+00  9.000E+00
       2     1     1     2   501     0 -3.950309096E+01  5.065664287E+01  1.092629551E+02  1.267481437E+02  3.300000000E-01  0.00000E+00  9.000E+00
       3     1     1     2   512     0  2.048670260E+01  5.560225847E+00  1.384098504E+01  2.534647829E+01  5.000000000E-01  0.00000E+00  9.000E+00
      21     1     1     2   502   512 -3.102355349E+01  3.145429653E+01  1.814792514E+02  1.867794216E+02  3.814697266E-06  0.00000E+00  9.000E+00
</event>
<event>
      8  10001  1.06283E-02  1.23049E+03 -1.00000E+00  9.00880E-02
       2    -1     0     0   501     0  0.000000000E+00  0.000000000E+00  2.004960252E+03  2.004960252E+03  0.000000000E+00  0.00000E+00  9.000E+00
      -4    -1     0     0     0   502  0.000000000E+00  0.000000000E+00 -3.620545526E+02  3.620545526E+02  0.000000000E+00  0.00000E+00  9.000E+00
      23     2     1     2     0     0 -1.505495293E+02 -3.022508354E+02  4.128489448E+02  5.410917028E+02  9.118800000E+01  0.00000E+00  9.000E+00
     -13     1     3     3     0     0 -7.069527321E+01 -7.391464890E+01  8.117600267E+01  1.305785264E+02  1.057000000E-01  0.00000E+00  9.000E+00
      13     1     3     3     0     0 -7.985425608E+01 -2.283361865E+02  3.316729421E+02  4.105131764E+02  1.057000000E-01  0.00000E+00  9.000E+00
       1     1     1     2   511     0 -2.914151483E+02 -3.711523994E+02  4.549146560E+02  6.554573559E+02  3.300000000E-01  0.00000E+00  9.000E+00
      -3     1     1     2     0   502  1.397205817E+02  1.616229728E+02  4.375348737E+02  4.869094803E+02  5.000000000E-01  0.00000E+00  9.000E+00
      21     1     1     2   501   511  3.022440959E+02  5.117802619E+02  3.376072249E+02  6.835562657E+02  1.144409180E-05  0.00000E+00  9.000E+00
</event>
<event>
      8  10001  2.72244E-01  1.25075E+02 -1.00000E+00  1.21833E-01
      -4    -1     0     0     0   501  0.000000000E+00  0.000000000E+00  2.812078461E+02  2.812078461E+02  0.000000000E+00  0.00000E+00  9.000E+00
       3    -1     0     0   502     0  0.000000000E+00  0.000000000E+00 -6.382546835E+01  6.382546835E+01  0.000000000E+00  0.00000E+00  9.000E+00
      23     2     1     2     0     0  1.180598007E-01 -3.493887448E+00  4.395138502E+01  1.012876931E+02  9.118800000E+01  0.00000E+00  9.000E+00
     -13     1     3     3     0     0  3.991457837E+01  6.993621636E+00  4.442384969E+01  6.012964247E+01  1.057000000E-01  0.00000E+00  9.000E+00
      13     1     3     3     0     0 -3.979651857E+01 -1.048750908E+01 -4.724646703E-01  4.115805064E+01  1.057000000E-01  0.00000E+00  9.000E+00
      -4     1     1     2     0   501 -8.587319066E+00  1.428673614E+00  2.044740948E+02  2.046648201E+02  1.500000000E+00  0.00000E+00  9.000E+00
       3     1     1     2   511     0  1.323182001E+00  1.380041618E+00  3.380966919E+00  3.916154080E+00  5.000000000E-01  0.00000E+00  9.000E+00
      21     1     1     2   502   511  7.146077264E+00  6.851722160E-01 -3.442406899E+01  3.516464712E+01  1.581489940E-06  0.00000E+00  9.000E+00
</event>
<event>
      8  10001  1.09965E-02  1.48505E+03 -1.00000E+00  8.82077E-02
      -1    -1     0     0     0   501  0.000000000E+00  0.000000000E+00  1.324409090E+03  1.324409090E+03  0.000000000E+00  0.00000E+00  9.000E+00
       2    -1     0     0   502     0  0.000000000E+00  0.000000000E+00 -9.520609040E+02  9.520609040E+02  0.000000000E+00  0.00000E+00  9.000E+00
      23     2     1     2     0     0  3.964243465E+02 -3.597099215E+02  1.118412243E+03  1.243263724E+03  9.118800000E+01  0.00000E+00  9.000E+00
     -13     1     3     3     0     0  2.835279743E+02 -3.051400252E+02  8.915711355E+02  9.840719730E+02  1.057000000E-01  0.00000E+00  9.000E+00
      13     1     3     3     0     0  1.128963722E+02 -5.456989638E+01  2.268411076E+02  2.591917509E+02  1.057000000E-01  0.00000E+00  9.000E+00
      -1     1     1     2     0   512 -5.784794664E+01 -5.678649493E+01  2.308600994E+01  8.428620108E+01  3.300000000E-01  0.00000E+00  9.000E+00
       2     1     1     2   502     0 -9.649699207E+00  6.710010732E+01 -4.944282150E+01  8.390615350E+01  3.300000000E-01  0.00000E+00  9.000E+00
      21     1     1     2   512   501 -3.289267006E+02  3.493963092E+02 -7.197072454E+02  8.650139157E+02  7.629394531E-06  0.00000E+00  9.000E+00
</event>
<event>
      8  10001  1.50459E-02  7.88401E+01 -1.00000E+00  1.31242E-01
      -2    -1     0     0     0   501  0.000000000E+00  0.000000000E+00  3.446828680E+01  3.446828680E+01  0.000000000E+00  0.00000E+00  9.000E+00
       1    -1     0     0   502     0  0.000000000E+00  0.000000000E+00 -5.046772141E+02  5.046772141E+02  0.000000000E+00  0.00000E+00  9.000E+00
      23     2     1     2     0     0 -4.861339737E+01 -5.626072500E+01 -1.339110495E+02  1.782581053E+02  9.118800000E+01  0.00000E+00  9.000E+00
     -13     1     3     3     0     0 -5.113225182E+01 -6.280366799E+01 -5.243140293E+01  9.647730861E+01  1.057000000E-01  0.00000E+00  9.000E+00
      13     1     3     3     0     0  2.518854454E+00  6.542942992E+00 -8.147964655E+01  8.178079668E+01  1.057000000E-01  0.00000E+00  9.000E+00
      -2     1     1     2     0   501 -1.877699739E+01 -1.179155011E+01 -6.074762726E+01  6.466838024E+01  3.300000000E-01  0.00000E+00  9.000E+00
       1     1     1     2   511     0  1.514284109E+01  7.526427458E+00 -1.213333267E+02  1.225064808E+02  3.300000000E-01  0.00000E+00  9.000E+00
      21     1     1     2   502   511  5.224755367E+01  6.052584765E+01 -1.542169238E+02  1.737125346E+02  5.046370146E-06  0.00000E+00  9.000E+00
</event>
<event>
      8  10001  1.27384E-02  3.70979E+01 -1.00000E+00  1.50302E-01
       1    -1     0     0   501     0  0.000000000E+00  0.000000000E+00  4.495397902E+02  4.495397902E+02  0.000000000E+00  0.00000E+00  9.000E+00
      -1    -1     0     0     0   502  0.000000000E+00  0.000000000E+00 -2.575916819E+01  2.575916819E+01  0.000000000E+00  0.00000E+00  9.000E+00
      23     2     1     2     0     0 -1.962299096E+01  2.449454191E+01  1.699767017E+02  1.954286950E+02  9.118800000E+01  0.00000E+00  9.000E+00
     -13     1     3     3     0     0 -5.182418359E+01  2.223333156E+01  1.417213250E+02  1.525287257E+02  1.057000000E-01  0.00000E+00  9.000E+00
      13     1     3     3     0     0  3.220119262E+01  2.261210344E+00  2.825537672E+01  4.289996928E+01  1.057000000E-01  0.00000E+00  9.000E+00
       2     1     1     2   501     0  3.010451716E+01 -4.790017781E+01  7.759133542E+01  9.602725248E+01  3.300000000E-01  0.00000E+00  9.000E+00
      -2     1     1     2     0   512 -1.455725111E+01  3.196942323E+01  8.271548449E+01  8.986611072E+01  3.300000000E-01  0.00000E+00  9.000E+00
      21     1     1     2   512   502  4.075724908E+00 -8.563787327E+00  9.349710046E+01  9.397690025E+01  0.000000000E+00  0.00000E+00  9.000E+00
</event>
<event>
      8  10001  2.21401E-02  3.13583E+01 -1.00000E+00  1.55356E-01
       4    -1     0     0   501     0  0.000000000E+00  0.000000000E+00  2.837038126E+01  2.837038126E+01  0.000000000E+00  0.00000E+00  9.000E+00
       2    -1     0     0   502     0  0.000000000E+00  0.000000000E+00 -3.316960516E+02  3.316960516E+02  0.000000000E+00  0.00000E+00  9.000E+00
      23     2     1     2     0     0  2.470531158E+01  2.871204264E+00 -7.836113850E+01  1.227775045E+02  9.118800000E+01  0.00000E+00  9.000E+00
     -13     1     3     3     0     0  2.454813068E+01  2.058779773E+00 -9.905222787E+01  1.020696052E+02  1.057000000E-01  0.00000E+00  9.000E+00
      13     1     3     3     0     0  1.571808962E-01  8.124244917E-01  2.069108937E+01  2.070789924E+01  1.057000000E-01  0.00000E+00  9.000E+00
       4     1     1     2   501     0 -6.907706914E+00  1.506445381E+01 -4.583458605E+01  4.876180331E+01  1.500000000E+00  0.00000E+00  9.000E+00
       2     1     1     2   511     0 -6.770439959E+00 -1.091396964E+01 -1.740157960E+02  1.744894259E+02  3.300000000E-01  0.00000E+00  9.000E+00
      21     1     1     2   502   511 -1.102716471E+01 -7.021688436E+00 -5.114149759E+00  1.403769916E+01  6.822063412E-07  0.00000E+00  9.000E+00
</event>
<event>
      8  10001  1.37913E-02  3.31860E+01 -1.00000E+00  1.53614E-01
       2    -1     0     0   501     0  0.000000000E+00  0.000000000E+00  1.486602184E+03  1.486602184E+03  0.000000000E+00  0.00000E+00  9.000E+00
       1    -1     0     0   502     0  0.000000000E+00  0.000000000E+00 -4.359226547E+01  4.359226547E+01  0.000000000E+00  0.00000E+00  9.000E+00
      23     2     1     2     0     0 -1.969521342E+02  8.757222989E+01  5.683289549E+02  6.146316710E+02  9.118800000E+01  0.00000E+00  9.000E+00
     -13     1     3     3     0     0 -4.221655331E+01 -4.908752324E+00  4.877967049E+01  6.469776385E+01  1.057000000E-01  0.00000E+00  9.000E+00
      13     1     3     3     0     0 -1.547355809E+02  9.248098221E+01  5.195492844E+02  5.499339071E+02  1.057000000E-01  0.00000E+00  9.000E+00
       1     1     1     2   501     0  2.135449679E+02 -7.464092495E+01  6.542445768E+02  6.922490854E+02  3.300000000E-01  0.00000E+00  9.000E+00
       2     1     1     2   512     0 -1.617058516E+01 -1.129955302E+01  6.642950675E+01  6.929759008E+01  3.300000000E-01  0.00000E+00  9.000E+00
      21     1     1     2   502   512 -4.222485243E-01 -1.631751915E+00  1.540068802E+02  1.540161033E+02  1.907348633E-06  0.00000E+00  9.000E+00
</event>
<event>
      8  10001  1.08899E-02  1.73706E+02 -1.00000E+00  1.15934E-01
       2    -1     0     0   501     0  0.000000000E+00  0.000000000E+00  3.119167946E+02  3.119167946E+02  0.000000000E+00  0.00000E+00  9.000E+00
       2    -1     0     0   502     0  0.000000000E+00  0.000000000E+00 -4.122379085E+02  4.122379085E+02  0.000000000E+00  0.00000E+00  9.000E+00
      23     2     1     2     0     0  1.517903133E+01  3.841409170E+01 -3.157100566E+02  3.312010517E+02  9.118800000E+01  0.00000E+00  9.000E+00
     -13     1     3     3     0     0  1.482920766E+01 -1.145367680E+01 -2.388262957E+02  2.395602279E+02  1.057000000E-01  0.00000E+00  9.000E+00
      13     1     3     3     0     0  3.498236663E-01  4.986776849E+01 -7.688376090E+01  9.164082373E+01  1.057000000E-01  0.00000E+00  9.000E+00
       2     1     1     2   511     0  1.550294498E+00  9.429185755E-01  8.554198530E+01  8.556186451E+01  3.300000000E-01  0.00000E+00  9.000E+00
       2     1     1     2   502     0 -2.736272438E+01  5.251700094E+01  1.886953398E+02  1.977695483E+02  3.300000000E-01  0.00000E+00  9.000E+00
      21     1     1     2   501   511  1.063339855E+01 -9.187401121E+01 -5.884838239E+01  1.096222387E+02  1.168007728E-06  0.00000E+00  9.000E+00
</event>
<event>
      8  10001  2.21102E-02  3.21196E+01 -1.00000E+00  1.54614E-01
      -3    -1     0     0     0   501  0.000000000E+00  0.000000000E+00  7.477641519E+00  7.477641519E+00  0.000000000E+00  0.00000E+00  9.000E+00
       1    -1     0     0   502     0  0.000000000E+00  0.000000000E+00 -9.483138984E+02  9.483138984E+02  0.000000000E+00  0.00000E+00  9.000E+00
      23     2     1     2     0     0  8.149114468E+00 -3.583369752E+01 -6.291737483E+02  6.368086988E+02  9.118800000E+01  0.00000E+00  9.000E+00
     -13     1     3     3     0     0 -1.123311027E+01  2.038832082E+01 -5.725291365E+01  6.180431769E+01  1.057000000E-01  0.00000E+00  9.000E+00
      13     1     3     3     0     0  1.938222474E+01 -5.622201834E+01 -5.719208346E+02  5.750043811E+02  1.057000000E-01  0.00000E+00  9.000E+00
      -4     1     1     2     0   511  1.448429007E+01  9.193670930E+00 -3.202991705E+01  3.636597077E+01  1.500000000E+00  0.00000E+00  9.000E+00
       2     1     1     2   502     0 -4.649175577E+00  2.142833350E+01 -1.679383757E+02  1.693640908E+02  3.300000000E-01  0.00000E+00  9.000E+00
      21     1     1     2   511   501 -1.798422896E+01  5.211693085E+00 -1.116942159E+02  1.132527796E+02  0.000000000E+00  0.00000E+00  9.000E+00
</event>
<event>
      8  10001  1.06065E-02  3.42125E+02 -1.00000E+00  1.05430E-01
      -1    -1     0     0     0   501  0.000000000E+00  0.000000000E+00  1.244992226E+03  1.244992226E+03  0.000000000E+00  0.00000E+00  9.000E+00
       1    -1     0     0   502     0  0.000000000E+00  0.000000000E+00 -1.343946486E+02  1.343946486E+02  0.000000000E+00  0.00000E+00  9.000E+00
      23     2     1     2     0     0 -2.086388641E+02 -2.224163723E+02  4.237257503E+02  5.299603581E+02  9.118800000E+01  0.00000E+00  9.000E+00
     -13     1     3     3     0     0  1.444551994E-01 -3.672218234E+01  3.147442227E+01  4.836517314E+01  1.057000000E-01  0.00000E+00  9.000E+00
      13     1     3     3     0     0 -2.087833193E+02 -1.856941900E+02  3.922513280E+02  4.815951849E+02  1.057000000E-01  0.00000E+00  9.000E+00
      -2     1     1     2     0   511 -2.399735194E+01 -9.126665030E+01  2.089562010E+02  2.292777294E+02  3.300000000E-01  0.00000E+00  9.000E+00
       2     1     1     2   502     0  1.035267289E+02  1.901450832E+02  2.631472888E+02  3.407631740E+02  3.300000000E-01  0.00000E+00  9.000E+00
      21     1     1     2   511   501  1.291094871E+02  1.235379394E+02  2.147683376E+02  2.793856134E+02  8.092194914E-06  0.00000E+00  9.000E+00
</event>
<event>
      8  10001  3.16745E-02  1.19822E+02 -1.00000E+00  1.22649E-01
       2    -1     0     0   501     0  0.000000000E+00  0.000000000E+00  1.144294893E+02  1.144294893E+02  0.000000000E+00  0.00000E+00  9.000E+00
       2    -1     0     0   502     0  0.000000000E+00  0.000000000E+00 -2.261696806E+02  2.261696806E+02  0.000000000E+00  0.00000E+00  9.000E+00
      23     2     1     2     0     0 -1.295966652E+01 -7.066429039E+01 -1.385616582E+02  1.807649838E+02  9.118800000E+01  0.00000E+00  9.000E+00
     -13     1     3     3     0     0  2.167510232E+01 -3.074499075E+01 -1.183456606E+02  1.241803973E+02  1.057000000E-01  0.00000E+00  9.000E+00
      13     1     3     3     0     0 -3.463476884E+01 -3.991929964E+01 -2.021599761E+01  5.658458649E+01  1.057000000E-01  0.00000E+00  9.000E+00
       2     1     1     2   501     0  1.112739094E+01  4.007845059E-01  6.422558055E+01  6.518445792E+01  3.300000000E-01  0.00000E+00  9.000E+00
       2     1     1     2   511     0 -3.088109324E+00 -6.078517070E-01  9.170901432E+00  9.701558430E+00  3.300000000E-01  0.00000E+00  9.000E+00
      21     1     1     2   502   511  4.920384910E+00  7.087135759E+01 -4.657501503E+01  8.494816973E+01  1.651812370E-06  0.00000E+00  9.000E+00
</event>
<event>
      8  10001  1.29411E-02  9.27075E+01 -1.00000E+00  1.27773E-01
      -2    -1     0     0     0   501  0.000000000E+00  0.000000000E+00  5.564533108E+02  5.564533108E+02  0.000000000E+00  0.00000E+00  9.000E+00
      21    -1     0     0   512   502  0.000000000E+00  0.000000000E+00 -6.870890585E+02  6.870890585E+02  0.000000000E+00  0.00000E+00  9.000E+00
      23     2     1     2     0     0  1.270163733E+02  4.132777907E+00 -3.836444086E+02  4.143048667E+02  9.118800000E+01  0.00000E+00  9.000E+00
     -13     1     3     3     0     0  5.073938377E+01  1.590983242E+01 -2.804169012E+02  2.854141859E+02  1.057000000E-01  0.00000E+00  9.000E+00
      13     1     3     3     0     0  7.627698949E+01 -1.177705452E+01 -1.032275074E+02  1.288906808E+02  1.057000000E-01  0.00000E+00  9.000E+00
      -1     1     1     2     0   501 -3.249702427E+01  1.127999428E+01  1.568288546E+02  1.605574457E+02  3.300000000E-01  0.00000E+00  9.000E+00
      -4     1     1     2     0   502 -2.155464231E+00 -2.338437663E+01  3.745445562E+02  3.752830261E+02  1.500000000E+00  0.00000E+00  9.000E+00
       3     1     1     2   512     0 -9.236388477E+01  7.971604445E+00 -2.783647498E+02  2.933970307E+02  5.000000000E-01  0.00000E+00  9.000E+00
</event>
<event>
      8  10001  3.43538E-02  5.47612E+01 -1.00000E+00  1.39796E-01
       2    -1     0     0   501     0  0.000000000E+00  0.000000000E+00  1.221257753E+03  1.221257753E+03  0.000000000E+00  0.00000E+00  9.000E+00
      -2    -1     0     0     0   502  0.000000000E+00  0.000000000E+00 -1.395509848E+01  1.395509848E+01  0.000000000E+00  0.00000E+00  9.000E+00
      23     2     1     2     0     0  7.775917528E+00  3.404827927E+01  1.115522480E+03  1.119788107E+03  9.118800000E+01  0.00000E+00  9.000E+00
     -13     1     3     3     0     0 -2.794823219E+01  3.613739520E+01  2.978677227E+02  3.013506370E+02  1.057000000E-01  0.00000E+00  9.000E+00
      13     1     3     3     0     0  3.572414971E+01 -2.089115932E+00  8.176547574E+02  8.184374703E+02  1.057000000E-01  0.00000E+00  9.000E+00
       2     1     1     2   511     0  4.986137744E+00  1.470836377E+01  2.036844284E+01  2.561600863E+01  3.300000000E-01  0.00000E+00  9.000E+00
      -2     1     1     2     0   502 -1.424789143E+01 -2.427485275E+01  4.937901608E+01  5.683895684E+01  3.300000000E-01  0.00000E+00  9.000E+00
      21     1     1     2   501   511  1.485836159E+00 -2.448179029E+01  2.203271581E+01  3.296977905E+01  4.129530925E-07  0.00000E+00  9.000E+00
</event>
<event>
      8  10001  1.06746E-02  1.64342E+02 -1.00000E+00  1.16888E-01
       1    -1     0     0   501     0  0.000000000E+00  0.000000000E+00  2.999294534E+03  2.999294534E+03  0.000000000E+00  0.00000E+00  9.000E+00
       2    -1     0     0   502     0  0.000000000E+00  0.000000000E+00 -1.106150488E+02  1.106150488E+02  0.000000000E+00  0.00000E+00  9.000E+00
      23     2     1     2     0     0  2.311298040E+02 -1.338001861E+02  2.482063883E+03  2.498055212E+03  9.118800000E+01  0.00000E+00  9.000E+00
     -13     1     3     3     0     0  6.706165358E+00 -1.846616878E+00  3.619276427E+02  3.619944922E+02  1.057000000E-01  0.00000E+00  9.000E+00
      13     1     3     3     0     0  2.244236387E+02 -1.319535692E+02  2.120136240E+03  2.136060720E+03  1.057000000E-01  0.00000E+00  9.000E+00
       1     1     1     2   511     0 -2.122714764E+01  5.129252897E+01  3.710946114E+02  3.752237131E+02  3.300000000E-01  0.00000E+00  9.000E+00
       2     1     1     2   502     0 -1.876383944E+02  8.792075028E+01  4.464062992E+01  2.119696208E+02  3.300000000E-01  0.00000E+00  9.000E+00
      21     1     1     2   501   511 -2.226426197E+01 -5.413093138E+00 -9.119638332E+00  2.466103692E+01  3.552356821E-06  0.00000E+00  9.000E+00
</event>
<event>
      8  10001  1.09124E-02  7.45454E+02 -1.00000E+00  9.55218E-02
       1    -1     0     0   501     0  0.000000000E+00  0.000000000E+00  4.562519816E+02  4.562519816E+02  0.000000000E+00  0.00000E+00  9.000E+00
      -3    -1     0     0     0   502  0.000000000E+00  0.000000000E+00 -1.001469646E+03  1.001469646E+03  0.000000000E+00  0.00000E+00  9.000E+00
      23     2     1     2     0     0  2.295140209E+01 -3.012619004E+01  2.690252739E+02  2.865732079E+02  9.118800000E+01  0.00000E+00  9.000E+00
     -13     1     3     3     0     0  4.374811174E+01 -4.143408971E+01  2.469852232E+02  2.542290163E+02  1.057000000E-01  0.00000E+00  9.000E+00
      13     1     3     3     0     0 -2.079670965E+01  1.130789967E+01  2.204005065E+01  3.234419163E+01  1.057000000E-01  0.00000E+00  9.000E+00
       2     1     1     2   511     0 -5.129057105E+01 -1.566175788E+02  1.136063862E+02  2.001657027E+02  3.300000000E-01  0.00000E+00  9.000E+00
      -4     1     1     2     0   502 -4.786904984E+01 -1.459538619E+00 -4.394906748E+02  4.420948760E+02  1.500000000E+00  0.00000E+00  9.000E+00
      21     1     1     2   501   511  7.620821880E+01  1.882033075E+02 -4.883586493E+02  5.288878405E+02  2.018548058E-05  0.00000E+00  9.000E+00
</event>
<event>
      8  10001  1.43643E-02  4.00651E+01 -1.00000E+00  1.48099E-01
       2    -1     0     0   501     0  0.000000000E+00  0.000000000E+00  1.333755271E+03  1.333755271E+03  0.000000000E+00  0.00000E+00  9.000E+00
       4    -1     0     0   502     0  0.000000000E+00  0.000000000E+00 -7.520931403E+00  7.520931403E+00  0.000000000E+00  0.00000E+00  9.000E+00
      23     2     1     2     0     0 -4.493497972E+01 -5.106517966E+01  6.005444750E+02  6.112247727E+02  9.118800000E+01  0.00000E+00  9.000E+00
     -13     1     3     3     0     0 -3.956791427E+01 -6.942089052E+01  3.127755763E+02  3.228210838E+02  1.057000000E-01  0.00000E+00  9.000E+00
      13     1     3     3     0     0 -5.367065452E+00  1.835571085E+01  2.877688987E+02  2.884036889E+02  1.057000000E-01  0.00000E+00  9.000E+00
       2     1     1     2   501     0  3.244525028E+01  3.421880742E+01  4.949194964E+02  4.971609778E+02  3.300000000E-01  0.00000E+00  9.000E+00
       4     1     1     2   511     0  2.908599610E+00 -2.020473016E+00  6.004022013E+00  7.130255481E+00  1.500000000E+00  0.00000E+00  9.000E+00
      21     1     1     2   502   511  9.581129833E+00  1.886684526E+01  2.247663458E+02  2.257601960E+02  0.000000000E+00  0.00000E+00  9.000E+00
</event>
<event>
      8  10001  1.29051E-02  1.87111E+02 -1.00000E+00  1.14678E-01
       4    -1     0     0   501     0  0.000000000E+00  0.000000000E+00  3.135228614E+01  3.135228614E+01  0.000000000E+00  0.00000E+00  9.000E+00
       2    -1     0     0   502     0  0.000000000E+00  0.000000000E+00 -9.461694016E+02  9.461694016E+02  0.000000000E+00  0.00000E+00  9.000E+00
      23     2     1     2     0     0  4.438890831E+01 -1.161087805E+02 -4.679051596E+02  4.926480628E+02  9.118800000E+01  0.00000E+00  9.000E+00
     -13     1     3     3     0     0  2.972482278E+01 -1.257253255E+02 -3.431021962E+02  3.666190813E+02  1.057000000E-01  0.00000E+00  9.000E+00
      13     1     3     3     0     0  1.466408553E+01  9.616545003E+00 -1.248029634E+02  1.260289815E+02  1.057000000E-01  0.00000E+00  9.000E+00
       4     1     1     2   512     0 -3.396534661E+01 -2.075629281E+01 -5.977054285E+01  7.182782368E+01  1.500000000E+00  0.00000E+00  9.000E+00
       2     1     1     2   502     0 -2.087215730E+01  3.142855377E+01 -9.047197894E+01  9.802391961E+01  3.300000000E-01  0.00000E+00  9.000E+00
      21     1     1     2   501   512  1.044859560E+01  1.054365195E+02 -2.966694341E+02  3.150218817E+02  8.529922400E-06  0.00000E+00  9.000E+00
</event>
<event>
      8  10001  2.06904E-02  2.68081E+01 -1.00000E+00  1.60397E-01
       2    -1     0     0   501     0  0.000000000E+00  0.000000000E+00  1.692958223E+03  1.692958223E+03  0.000000000E+00  0.00000E+00  9.000E+00
       2    -1     0     0   502     0  0.000000000E+00  0.000000000E+00 -9.725814512E+00  9.725814512E+00  0.000000000E+00  0.00000E+00  9.000E+00
      23     2     1     2     0     0  2.271784105E+01 -3.846652299E+01  2.878208388E+02  3.052078968E+02  9.118800000E+01  0.00000E+00  9.000E+00
     -13     1     3     3     0     0 -3.147515619E+01 -1.652150380E+00  5.549179390E+01  6.381822170E+01  1.057000000E-01  0.00000E+00  9.000E+00
      13     1     3     3     0     0  5.419299724E+01 -3.681437261E+01  2.323290449E+02  2.413896751E+02  1.057000000E-01  0.00000E+00  9.000E+00
       2     1     1     2   511     0  4.848834714E+00 -1.717202898E+00  5.588097936E+01  5.611820327E+01  3.300000000E-01  0.00000E+00  9.000E+00
       2     1     1     2   502     0 -1.939435253E+01  2.944906803E+01  1.272217626E+03  1.272706244E+03  3.300000000E-01  0.00000E+00  9.000E+00
      21     1     1     2   501   511 -8.172323234E+00  1.073465786E+01  6.731296485E+01  6.865169323E+01  6.031565972E-06  0.00000E+00  9.000E+00
</event>
<event>
      8  10001  1.09258E-02  5.19405E+02 -1.00000E+00  9.98721E-02
       2    -1     0     0   501     0  0.000000000E+00  0.000000000E+00  8.223191860E+01  8.223191860E+01  0.000000000E+00  0.00000E+00  9.000E+00
       1    -1     0     0   502     0  0.000000000E+00  0.000000000E+00 -2.938772257E+03  2.938772257E+03  0.000000000E+00  0.00000E+00  9.000E+00
      23     2     1     2     0     0 -4.408765251E+01  1.812612980E+02 -2.630965150E+03  2.639146121E+03  9.118800000E+01  0.00000E+00  9.000E+00
     -13     1     3     3     0     0 -2.502613468E+01  1.952227458E-01 -2.605855067E+02  2.617845737E+02  1.057000000E-01  0.00000E+00  9.000E+00
      13     1     3     3     0     0 -1.906151783E+01  1.810660753E+02 -2.370379643E+03  2.377361548E+03  1.057000000E-01  0.00000E+00  9.000E+00
       1     1     1     2   501     0  6.510107503E+01 -1.071992668E+02 -8.859222713E+01  1.535530019E+02  3.300000000E-01  0.00000E+00  9.000E+00
       2     1     1     2   511     0 -8.479546833E-01 -1.206856470E+01 -1.590279114E+02  1.594877889E+02  3.300000000E-01  0.00000E+00  9.000E+00
      21     1     1     2   502   511 -2.016546784E+01 -6.199346650E+01  2.204494969E+01  6.881726374E+01  4.298152060E-06  0.00000E+00  9.000E+00
</event>
<event>
      8  10001  1.15402E-02  2.54520E+02 -1.00000E+00  1.09765E-01
       3    -1     0     0   501     0  0.000000000E+00  0.000000000E+00  1.205519639E+02  1.205519639E+02  0.000000000E+00  0.00000E+00  9.000E+00
       2    -1     0     0   502     0  0.000000000E+00  0.000000000E+00 -1.019564731E+03  1.019564731E+03  0.000000000E+00  0.00000E+00  9.000E+00
      23     2     1     2     0     0  3.071819001E+01 -6.314358508E+01  5.774722490E+01  1.287661169E+02  9.118800000E+01  0.00000E+00  9.000E+00
     -13     1     3     3     0     0  6.178684296E+01 -5.224183490E+01  4.939171305E+01  9.479649660E+01  1.057000000E-01  0.00000E+00  9.000E+00
      13     1     3     3     0     0 -3.106865295E+01 -1.090175019E+01  8.355511848E+00  3.396962031E+01  1.057000000E-01  0.00000E+00  9.000E+00
       4     1     1     2   512     0 -3.280353011E+01 -4.800401138E+01 -1.288380412E+01  5.957095857E+01  1.500000000E+00  0.00000E+00  9.000E+00
       1     1     1     2   502     0 -1.942820564E+01  8.123465745E+01 -5.691557097E+02  5.752519930E+02  3.300000000E-01  0.00000E+00  9.000E+00
      21     1     1     2   501   512  2.151354574E+01  2.991293902E+01 -3.747204781E+02  3.765276261E+02  1.525878906E-05  0.00000E+00  9.000E+00
</event>
<event>
      8  10001  1.10410E-02  7.23751E+02 -1.00000E+00  9.58630E-02
      -1    -1     0     0     0   501  0.000000000E+00  0.000000000E+00  1.735625387E+03  1.735625387E+03  0.000000000E+00  0.00000E+00  9.000E+00
       1    -1     0     0   502     0  0.000000000E+00  0.000000000E+00 -1.586551142E+03  1.586551142E+03  0.000000000E+00  0.00000E+00  9.000E+00
      23     2     1     2     0     0 -1.766782275E+02 -8.721152437E+02  1.417223937E+03  1.675899500E+03  9.118800000E+01  0.00000E+00  9.000E+00
     -13     1     3     3     0     0  8.241484902E+00 -1.027554909E+02  1.728252962E+02  2.012342097E+02  1.057000000E-01  0.00000E+00  9.000E+00
      13     1     3     3     0     0 -1.849197124E+02 -7.693597528E+02  1.244398641E+03  1.474665290E+03  1.057000000E-01  0.00000E+00  9.000E+00
      -2     1     1     2     0   511  2.232832753E+01 -7.450734763E+00  1.933872886E+01  3.046576755E+01  3.300000000E-01  0.00000E+00  9.000E+00
       2     1     1     2   502     0  1.674791999E+02  8.159399180E+02 -9.135734252E+02  1.236294360E+03  3.300000000E-01  0.00000E+00  9.000E+00
      21     1     1     2   511   501 -1.312929988E+01  6.362606042E+01 -3.739149964E+02  3.795169016E+02  5.394796609E-06  0.00000E+00  9.000E+00
</event>
<event>
      8  10001  1.51300E-02  3.17032E+01 -1.00000E+00  1.55017E-01
       2    -1     0     0   501     0  0.000000000E+00  0.000000000E+00  1.690548660E+03  1.690548660E+03  0.000000000E+00  0.00000E+00  9.000E+00
      -3    -1     0     0     0   502  0.000000000E+00  0.000000000E+00 -4.698581334E+00  4.698581334E+00  0.000000000E+00  0.00000E+00  9.000E+00
      23     2     1     2     0     0  3.821512180E+01  1.168303737E+01  9.740195516E+02  9.790945956E+02  9.118800000E+01  0.00000E+00  9.000E+00
     -13     1     3     3     0     0 -1.846668237E+01 -3.690654295E+00  5.376227222E+01  5.696518563E+01  1.057000000E-01  0.00000E+00  9.000E+00
      13     1     3     3     0     0  5.668180416E+01  1.537369167E+01  9.202572794E+02  9.221294100E+02  1.057000000E-01  0.00000E+00  9.000E+00
       2     1     1     2   511     0 -1.018179253E-01  3.055224586E+00  1.506831471E+02  1.507145132E+02  3.300000000E-01  0.00000E+00  9.000E+00
      -3     1     1     2     0   502 -5.200268467E+01 -6.219607561E+00  4.622141633E+02  4.651721675E+02  5.000000000E-01  0.00000E+00  9.000E+00
      21     1     1     2   501   511  1.388938080E+01 -8.518654396E+00  9.893321658E+01  1.002659649E+02  6.877043296E-06  0.00000E+00  9.000E+00
</event>
<event>
      8  10001  2.43550E-02  3.21649E+02 -1.00000E+00  1.06305E-01
      -2    -1     0     0     0   501  0.000000000E+00  0.000000000E+00  2.137901506E+01  2.137901506E+01  0.000000000E+00  0.00000E+00  9.000E+00
       2    -1     0     0   502     0  0.000000000E+00  0.000000000E+00 -1.796213358E+03  1.796213358E+03  0.000000000E+00  0.00000E+00  9.000E+00
      23     2     1     2     0     0 -1.828199108E+01  3.938608927E+01 -1.568727453E+03  1.571975371E+03  9.118800000E+01  0.00000E+00  9.000E+00
     -13     1     3     3     0     0 -7.494166773E+00  3.184973783E+00 -1.348998859E+03  1.349023439E+03  1.057000000E-01  0.00000E+00  9.000E+00
      13     1     3     3     0     0 -1.078782431E+01  3.620111549E+01 -2.197285941E+02  2.229519323E+02  1.057000000E-01  0.00000E+00  9.000E+00
      -2     1     1     2     0   501  1.490750586E+01 -2.953825434E+00 -2.384524170E+01  2.827831797E+01  3.300000000E-01  0.00000E+00  9.000E+00
       2     1     1     2   511     0  2.865717049E+00 -7.699721021E-01 -1.816428601E+02  1.816673958E+02  3.300000000E-01  0.00000E+00  9.000E+00
      21     1     1     2   502   511  5.087681762E-01 -3.566229174E+01 -6.187884572E-01  3.567128812E+01  1.486255443E-06  0.00000E+00  9.000E+00
</event>
<event>
      8  10001  1.14799E-02  1.19003E+02 -1.00000E+00  1.22781E-01
       2    -1     0     0   501     0  0.000000000E+00  0.000000000E+00  1.342913646E+02  1.342913646E+02  0.000000000E+00  0.00000E+00  9.000E+00
       1    -1     0     0   502     0  0.000000000E+00  0.000000000E+00 -4.897334757E+02  4.897334757E+02  0.000000000E+00  0.00000E+00  9.000E+00
      23     2     1     2     0     0  4.557319439E+01  3.174627736E+01 -3.553933569E+02  3.710854776E+02  9.118800000E+01  0.00000E+00  9.000E+00
     -13     1     3     3     0     0  3.526695616E+01  5.975305894E+01 -3.024865731E+02  3.103422697E+02  1.057000000E-01  0.00000E+00  9.000E+00
      13     1     3     3     0     0  1.030623823E+01 -2.800678159E+01 -5.290678377E+01  6.074320787E+01  1.057000000E-01  0.00000E+00  9.000E+00
       2     1     1     2   512     0  1.645439327E+01 -4.089196716E+01  3.381307155E+01  5.555477246E+01  3.300000000E-01  0.00000E+00  9.000E+00
       1     1     1     2   502     0 -2.847224262E+01  2.141470349E+01  7.487991444E+01  8.292387238E+01  3.300000000E-01  0.00000E+00  9.000E+00
      21     1     1     2   501   512 -3.355534504E+01 -1.226901369E+01 -1.087417402E+02  1.144607178E+02  2.336015456E-06  0.00000E+00  9.000E+00
</event>
<event>
      8  10001  1.25373E-02  1.36714E+02 -1.00000E+00  1.20175E-01
       1    -1     0     0   501     0  0.000000000E+00  0.000000000E+00  4.022401503E+02  4.022401503E+02  0.000000000E+00  0.00000E+00  9.000E+00
       2    -1     0     0   502     0  0.000000000E+00  0.000000000E+00 -5.657034441E+01  5.657034441E+01  0.000000000E+00  0.00000E+00  9.000E+00
      23     2     1     2     0     0  1.530183980E+01 -1.292513009E+01  2.376125114E+02  2.552962244E+02  9.118800000E+01  0.00000E+00  9.000E+00
     -13     1     3     3     0     0 -1.494032338E+00 -4.463495281E+01  6.417398275E+01  7.818454054E+01  1.057000000E-01  0.00000E+00  9.000E+00
      13     1     3     3     0     0  1.679587213E+01  3.170982272E+01  1.734385286E+02  1.771116839E+02  1.057000000E-01  0.00000E+00  9.000E+00
       2     1     1     2   511     0  6.269597744E+01  2.840582927E+01  9.136735215E+01  1.143930884E+02  3.300000000E-01  0.00000E+00  9.000E+00
       1     1     1     2   502     0 -3.853938237E+01  2.221821397E-01  2.487466256E+01  4.587146276E+01  3.300000000E-01  0.00000E+00  9.000E+00
      21     1     1     2   501   511 -3.945843487E+01 -1.570288132E+01 -8.184720207E+00  4.324971918E+01  1.493688117E-06  0.00000E+00  9.000E+00
</event>
<event>
      8  10001  1.18802E-02  2.36482E+02 -1.00000E+00  1.10900E-01
       1    -1     0     0   501     0  0.000000000E+00  0.000000000E+00  1.220332026E+02  1.220332026E+02  0.000000000E+00  0.00000E+00  9.000E+00
       2    -1     0     0   502     0  0.000000000E+00  0.000000000E+00 -6.614817085E+02  6.614817085E+02  0.000000000E+00  0.00000E+00  9.000E+00
      23     2     1     2     0     0  1.652296066E+01 -1.180600281E+02 -5.958461077E+00  1.502063017E+02  9.118800000E+01  0.00000E+00  9.000E+00
     -13     1     3     3     0     0 -3.486038674E+01 -6.978878181E+01  7.715140481E+00  7.839167810E+01  1.057000000E-01  0.00000E+00  9.000E+00
      13     1     3     3     0     0  5.138334740E+01 -4.827124628E+01 -1.367360156E+01  7.181462358E+01  1.057000000E-01  0.00000E+00  9.000E+00
       2     1     1     2   511     0 -1.673180681E+01  1.545596891E+02 -7.567327065E+01  1.729022951E+02  3.300000000E-01  0.00000E+00  9.000E+00
       1     1     1     2   502     0 -1.591738270E+00 -2.531065691E+01 -1.332829011E+02  1.356746240E+02  3.300000000E-01  0.00000E+00  9.000E+00
      21     1     1     2   501   511  1.800584417E+00 -1.118900407E+01 -3.245338731E+02  3.247316904E+02  0.000000000E+00  0.00000E+00  9.000E+00
</event>
<event>
      8  10001  1.08715E-02  1.29127E+02 -1.00000E+00  1.21233E-01
       3    -1     0     0   501     0  0.000000000E+00  0.000000000E+00  2.396317197E+01  2.396317197E+01  0.000000000E+00  0.00000E+00  9.000E+00
       2    -1     0     0   502     0  0.000000000E+00  0.000000000E+00 -2.261043507E+03  2.261043507E+03  0.000000000E+00  0.00000E+00  9.000E+00
      23     2     1     2     0     0  1.643803868E+02 -7.884483698E+01 -9.317177430E+02  9.537560610E+02  9.118800000E+01  0.00000E+00  9.000E+00
     -13     1     3     3     0     0  4.380618141E+01  1.392408725E+01 -3.260500249E+02  3.292741892E+02  1.057000000E-01  0.00000E+00  9.000E+00
      13     1     3     3     0     0  1.205742054E+02 -9.276892424E+01 -6.056677181E+02  6.244818718E+02  1.057000000E-01  0.00000E+00  9.000E+00
       4     1     1     2   501     0 -1.044673663E+02  5.269988466E+01 -6.913866914E+02  7.012193063E+02  1.500000000E+00  0.00000E+00  9.000E+00
       1     1     1     2   511     0 -3.081209131E+01  3.147365791E+01 -5.908262846E+02  5.924658502E+02  3.300000000E-01  0.00000E+00  9.000E+00
      21     1     1     2   502   511 -2.910092919E+01 -5.328705591E+00 -2.314961611E+01  3.756546166E+01  1.815741803E-06  0.00000E+00  9.000E+00
</event>
<event>
      8  10001  1.06746E-02  2.09199E+02 -1.00000E+00  1.12846E-01
      -3    -1     0     0     0   501  0.000000000E+00  0.000000000E+00  2.032646860E+02  2.032646860E+02  0.000000000E+00  0.00000E+00  9.000E+00
      -2    -1     0     0     0   502  0.000000000E+00  0.000000000E+00 -2.400652784E+02  2.400652784E+02  0.000000000E+00  0.00000E+00  9.000E+00
      23     2     1     2     0     0 -1.090088914E+01 -4.537354273E+01  2.821160499E+01  1.062484530E+02  9.118800000E+01  0.00000E+00  9.000E+00
     -13     1     3     3     0     0  6.185937174E+00 -7.022452090E+01  2.862637678E+01  7.608698821E+01  1.057000000E-01  0.00000E+00  9.000E+00
      13     1     3     3     0     0 -1.708682632E+01  2.485097817E+01 -4.147717932E-01  3.016146478E+01  1.057000000E-01  0.00000E+00  9.000E+00
      -4     1     1     2     0   512  3.887826881E+00 -1.002927570E+02  6.341783853E+01  1.187342602E+02  1.500000000E+00  0.00000E+00  9.000E+00
      -1     1     1     2     0   502 -1.209484749E+01  9.827284641E+01 -2.369429026E+01  1.018104414E+02  3.300000000E-01  0.00000E+00  9.000E+00
      21     1     1     2   512   501  1.910790976E+01  4.739345333E+01 -1.047357456E+02  1.165368098E+02  1.907348633E-06  0.00000E+00  9.000E+00
</event>
<event>
      8  10001  1.12307E-02  1.60873E+02 -1.00000E+00  1.17259E-01
       2    -1     0     0   501     0  0.000000000E+00  0.000000000E+00  2.201845578E+02  2.201845578E+02  0.000000000E+00  0.00000E+00  9.000E+00
      -2    -1     0     0     0   502  0.000000000E+00  0.000000000E+00 -2.431543740E+02  2.431543740E+02  0.000000000E+00  0.00000E+00  9.000E+00
      23     2     1     2     0     0 -4.184905992E+00  4.838930758E+01  1.381571509E+02  1.725157623E+02  9.118800000E+01  0.00000E+00  9.000E+00
     -13     1     3     3     0     0 -2.654708385E+00 -2.727129224E+01  3.168171763E+01  4.188691039E+01  1.057000000E-01  0.00000E+00  9.000E+00
      13     1     3     3     0     0 -1.530197606E+00  7.566059982E+01  1.064754333E+02  1.306288519E+02  1.057000000E-01  0.00000E+00  9.000E+00
       2     1     1     2   511     0  4.005103047E+01 -1.578998613E+01  5.297084260E+01  6.826000124E+01  3.300000000E-01  0.00000E+00  9.000E+00
      -2     1     1     2     0   502 -3.704176818E+01 -2.774889900E+01 -1.244743607E+02  1.328008636E+02  3.300000000E-01  0.00000E+00  9.000E+00
      21     1     1     2   501   511  1.175643700E+00 -4.850422457E+00 -8.962344898E+01  8.976230469E+01  2.132480600E-06  0.00000E+00  9.000E+00
</event>
<event>
      8  10001  1.05228E-02  1.07804E+03 -1.00000E+00  9.14602E-02
       2    -1     0     0   501     0  0.000000000E+00  0.000000000E+00  1.156766966E+03  1.156766966E+03  0.000000000E+00  0.00000E+00  9.000E+00
       1    -1     0     0   502     0  0.000000000E+00  0.000000000E+00 -5.858790817E+02  5.858790817E+02  0.000000000E+00  0.00000E+00  9.000E+00
      23     2     1     2     0     0  8.525784022E+01  7.270358332E+01 -9.030923214E+01  1.703693608E+02  9.118800000E+01  0.00000E+00  9.000E+00
     -13     1     3     3     0     0 -7.741044650E+00 -3.597255750E+00 -3.842743797E+01  3.936423736E+01  1.057000000E-01  0.00000E+00  9.000E+00
      13     1     3     3     0     0  9.299888487E+01  7.630083907E+01 -5.188179417E+01  1.310051234E+02  1.057000000E-01  0.00000E+00  9.000E+00
       1     1     1     2   501     0 -6.895233094E+01 -4.069748628E+02 -5.153165533E+01  4.159790659E+02  3.300000000E-01  0.00000E+00  9.000E+00
       2     1     1     2   511     0 -7.262273659E+01  2.715551937E+02 -1.297597579E+02  3.096029534E+02  3.300000000E-01  0.00000E+00  9.000E+00
      21     1     1     2   502   511  5.631722731E+01  6.271608574E+01  8.424885297E+02  8.466946676E+02  1.078959322E-05  0.00000E+00  9.000E+00
</event>
<event>
      8  10001  1.05891E-02  2.97715E+02 -1.00000E+00  1.07424E-01
       2    -1     0     0   501     0  0.000000000E+00  0.000000000E+00  5.446919900E+02  5.446919900E+02  0.000000000E+00  0.00000E+00  9.000E+00
      -2    -1     0     0     0   502  0.000000000E+00  0.000000000E+00 -3.127225432E+02  3.127225432E+02  0.000000000E+00  0.00000E+00  9.000E+00
      23     2     1     2     0     0  1.548642651E+02  1.883661535E+02  2.326753920E+02  3.491673493E+02  9.118800000E+01  0.00000E+00  9.000E+00
     -13     1     3     3     0     0  1.471804022E+02  1.231109790E+02  1.942944547E+02  2.730727564E+02  1.057000000E-01  0.00000E+00  9.000E+00
      13     1     3     3     0     0  7.683862886E+00  6.525517455E+01  3.838093730E+01  7.609459294E+01  1.057000000E-01  0.00000E+00  9.000E+00
       1     1     1     2   512     0 -1.521725202E+00  8.061908385E+00  1.342584090E+02  1.345092536E+02  3.300000000E-01  0.00000E+00  9.000E+00
      -1     1     1     2     0   502 -9.057740421E+01 -2.319534399E+02 -3.647996263E+01  2.516695472E+02  3.300000000E-01  0.00000E+00  9.000E+00
      21     1     1     2   501   512 -6.276513569E+01  3.552537795E+01 -9.848439161E+01  1.220683830E+02  6.180515955E-06  0.00000E+00  9.000E+00
</event>
<event>
      8  10001  1.07090E-02  2.63265E+02 -1.00000E+00  1.09252E-01
      -3    -1     0     0     0   501  0.000000000E+00  0.000000000E+00  8.865470833E+02  8.865470833E+02  0.000000000E+00  0.00000E+00  9.000E+00
       1    -1     0     0   502     0  0.000000000E+00  0.000000000E+00 -8.877341687E+01  8.877341687E+01  0.000000000E+00  0.00000E+00  9.000E+00
      23     2     1     2     0     0  1.346231740E+02 -2.098710739E+01  3.824194234E+02  4.160813916E+02  9.118800000E+01  0.00000E+00  9.000E+00
     -13     1     3     3     0     0  6.793592227E+01  3.403307095E+01  2.072221865E+02  2.207138084E+02  1.057000000E-01  0.00000E+00  9.000E+00
      13     1     3     3     0     0  6.668725172E+01 -5.502017835E+01  1.751972369E+02  1.953675832E+02  1.057000000E-01  0.00000E+00  9.000E+00
      -4     1     1     2     0   511  7.125766055E+01 -3.032985336E+01  2.840390086E+02  2.944112135E+02  1.500000000E+00  0.00000E+00  9.000E+00
       2     1     1     2   502     0 -9.111275315E+01  6.824481831E+01  6.056643075E+01  1.289468512E+02  3.300000000E-01  0.00000E+00  9.000E+00
      21     1     1     2   511   501 -1.147680814E+02 -1.692785755E+01  7.074880359E+01  1.358810439E+02  4.046097457E-06  0.00000E+00  9.000E+00
</event>
<event>
      8  10001  1.32230E-02  9.63434E+01 -1.00000E+00  1.26977E-01
      -3    -1     0     0     0   501  0.000000000E+00  0.000000000E+00  2.113776904E+02  2.113776904E+02  0.000000000E+00  0.00000E+00  9.000E+00
       1    -1     0     0   502     0  0.000000000E+00  0.000000000E+00 -1.318364980E+02  1.318364980E+02  0.000000000E+00  0.00000E+00  9.000E+00
      23     2     1     2     0     0  4.367789047E+00 -1.356613436E+01  1.540942415E+02  1.796201664E+02  9.118800000E+01  0.00000E+00  9.000E+00
     -13     1     3     3     0     0  4.326286042E+01 -2.708485803E+01  8.888665368E+01  1.024993317E+02  1.057000000E-01  0.00000E+00  9.000E+00
      13     1     3     3     0     0 -3.889507137E+01  1.351872367E+01  6.520758782E+01  7.712083472E+01  1.057000000E-01  0.00000E+00  9.000E+00
      -4     1     1     2     0   511  2.031958072E+01 -2.753814117E+01  3.188762131E+01  4.680069415E+01  1.500000000E+00  0.00000E+00  9.000E+00
       2     1     1     2   502     0 -1.609917568E+01  2.517101539E+01 -6.974055522E+01  7.587237584E+01  3.300000000E-01  0.00000E+00  9.000E+00
      21     1     1     2   511   501 -8.588194086E+00  1.593326015E+01 -3.670011518E+01  4.092095197E+01  1.168007728E-06  0.00000E+00  9.000E+00
</event>
<event>
      8  10001  1.34099E-02  1.03143E+02 -1.00000E+00  1.25591E-01
       2    -1     0     0   501     0  0.000000000E+00  0.000000000E+00  5.860846810E+02  5.860846810E+02  0.000000000E+00  0.00000E+00  9.000E+00
       1    -1     0     0   502     0  0.000000000E+00  0.000000000E+00 -2.385717981E+01  2.385717981E+01  0.000000000E+00  0.00000E+00  9.000E+00
      23     2     1     2     0     0 -1.135970501E+01  1.400842629E+01  3.008021503E+02  3.148372022E+02  9.118800000E+01  0.00000E+00  9.000E+00
     -13     1     3     3     0     0 -4.996501101E+01  2.010231795E+01  1.769628681E+02  1.849769536E+02  1.057000000E-01  0.00000E+00  9.000E+00
      13     1     3     3     0     0  3.860530600E+01 -6.093891660E+00  1.238392823E+02  1.298602486E+02  1.057000000E-01  0.00000E+00  9.000E+00
       1     1     1     2   511     0 -2.237986582E+01  1.842150866E+01  9.998949569E+01  1.041067650E+02  3.300000000E-01  0.00000E+00  9.000E+00
       2     1     1     2   502     0  2.296759276E+01 -3.554081143E+01  1.710631127E+02  1.762196273E+02  3.300000000E-01  0.00000E+00  9.000E+00
      21     1     1     2   501   511  1.077197807E+01  3.110876482E+00 -9.627257631E+00  1.477826625E+01  2.949074954E-06  0.00000E+00  9.000E+00
</event>
<event>
      8  10001  1.06280E-02  1.53047E+02 -1.00000E+00  1.18137E-01
       3    -1     0     0   501     0  0.000000000E+00  0.000000000E+00  3.895292752E+02  3.895292752E+02  0.000000000E+00  0.00000E+00  9.000E+00
       2    -1     0     0   502     0  0.000000000E+00  0.000000000E+00 -4.806497252E+02  4.806497252E+02  0.000000000E+00  0.00000E+00  9.000E+00
      23     2     1     2     0     0  1.392634052E+02  3.665598418E+02 -8.850607131E+01  4.122001815E+02  9.118800000E+01  0.00000E+00  9.000E+00
     -13     1     3     3     0     0  1.493290155E+01  8.291173039E+01 -5.518779268E+01  1.007127113E+02  1.057000000E-01  0.00000E+00  9.000E+00
      13     1     3     3     0     0  1.243305036E+02  2.836481114E+02 -3.331827863E+01  3.114874702E+02  1.057000000E-01  0.00000E+00  9.000E+00
       4     1     1     2   501     0 -1.063954979E+02 -2.234902898E+02 -9.477210010E+01  2.650507735E+02  1.500000000E+00  0.00000E+00  9.000E+00
       1     1     1     2   511     0 -3.925117376E+01 -2.449102181E+01  6.983933752E+00  4.679048003E+01  3.300000000E-01  0.00000E+00  9.000E+00
      21     1     1     2   502   511  6.383266456E+00 -1.185785302E+02  8.517378759E+01  1.461375653E+02  9.536743164E-07  0.00000E+00  9.000E+00
</event>
<event>
      8  10001  1.07948E-02  1.72152E+02 -1.00000E+00  1.16087E-01
      -3    -1     0     0     0   501  0.000000000E+00  0.000000000E+00  4.865748728E+02  4.865748728E+02  0.000000000E+00  0.00000E+00  9.000E+00
      -4    -1     0     0     0   502  0.000000000E+00  0.000000000E+00 -9.377432578E+01  9.377432578E+01  0.000000000E+00  0.00000E+00  9.000E+00
      23     2     1     2     0     0 -1.145268427E+01 -3.865748677E+01  1.483622825E+02  1.787517370E+02  9.118800000E+01  0.00000E+00  9.000E+00
     -13     1     3     3     0     0  1.057396128E+01 -2.725400403E+00 -1.004264281E+01  1.483584550E+01  1.057000000E-01  0.00000E+00  9.000E+00
      13     1     3     3     0     0 -2.202664555E+01 -3.593208636E+01  1.584049253E+02  1.639158915E+02  1.057000000E-01  0.00000E+00  9.000E+00
      -4     1     1     2     0   501 -9.565211924E+00 -6.202754382E+01 -2.621474573E+00  6.283336375E+01  1.500000000E+00  0.00000E+00  9.000E+00
      -3     1     1     2     0   512  1.815709001E+01  1.182589294E+02  3.320296408E+01  1.241673916E+02  5.000000000E-01  0.00000E+00  9.000E+00
      21     1     1     2   512   502  2.860806176E+00 -1.757389882E+01  2.138567750E+02  2.145967063E+02  4.672030912E-06  0.00000E+00  9.000E+00
</event>
<event>
      8  10001  1.11181E-02  9.26696E+01 -1.00000E+00  1.27782E-01
      -3    -1     0     0     0   501  0.000000000E+00  0.000000000E+00  9.690456405E+01  9.690456405E+01  0.000000000E+00  0.00000E+00  9.000E+00
       2    -1     0     0   502     0  0.000000000E+00  0.000000000E+00 -4.379517986E+02  4.379517986E+02  0.000000000E+00  0.00000E+00  9.000E+00
      23     2     1     2     0     0  3.072347814E+01 -1.334635465E+01 -3.113906656E+02  3.261923593E+02  9.118800000E+01  0.00000E+00  9.000E+00
     -13     1     3     3     0     0  2.260109214E+01  2.069046311E+01 -3.086318519E+01  4.349082665E+01  1.057000000E-01  0.00000E+00  9.000E+00
      13     1     3     3     0     0  8.122385992E+00 -3.403681777E+01 -2.805274804E+02  2.827015327E+02  1.057000000E-01  0.00000E+00  9.000E+00
      -3     1     1     2     0   511  2.339313976E-01 -1.636775146E+00  3.645226050E+01  3.649316446E+01  5.000000000E-01  0.00000E+00  9.000E+00
       2     1     1     2   502     0 -6.875162662E+01  3.629560246E+01  1.593413836E+01  7.936096387E+01  3.300000000E-01  0.00000E+00  9.000E+00
      21     1     1     2   511   501  3.779421709E+01 -2.131247266E+01 -8.204296774E+01  9.280987497E+01  9.536743164E-07  0.00000E+00  9.000E+00
</event>
<event>
      8  10001  7.28946E-02  7.31510E+01 -1.00000E+00  1.32911E-01
      -3    -1     0     0     0   501  0.000000000E+00  0.000000000E+00  5.994193409E+00  5.994193409E+00  0.000000000E+00  0.00000E+00  9.000E+00
       2    -1     0     0   502     0  0.000000000E+00  0.000000000E+00 -1.497077659E+03  1.497077659E+03  0.000000000E+00  0.00000E+00  9.000E+00
      23     2     1     2     0     0  5.451431247E+01 -7.154516799E+00 -7.605135833E+02  7.679317411E+02  9.118800000E+01  0.00000E+00  9.000E+00
     -13     1     3     3     0     0  4.138824899E+01 -3.435245797E+01 -6.768606735E+02  6.789944484E+02  1.057000000E-01  0.00000E+00  9.000E+00
      13     1     3     3     0     0  1.312606348E+01  2.719794117E+01 -8.365290978E+01  8.893729270E+01  1.057000000E-01  0.00000E+00  9.000E+00
      -3     1     1     2     0   501 -2.495509163E+00 -7.546552905E+00 -1.946112026E+02  1.947740953E+02  5.000000000E-01  0.00000E+00  9.000E+00
       2     1     1     2   511     0 -5.213763098E+00  2.430507550E+00 -2.687449974E+02  2.688067582E+02  3.300000000E-01  0.00000E+00  9.000E+00
      21     1     1     2   502   511 -4.680504020E+01  1.227056215E+01 -2.672136820E+02  2.715592575E+02  3.814697266E-06  0.00000E+00  9.000E+00
</event>
<event>
      8  10001  1.62597E-02  1.25152E+02 -1.00000E+00  1.21821E-01
       2    -1     0     0   501     0  0.000000000E+00  0.000000000E+00  2.170380002E+02  2.170380002E+02  0.000000000E+00  0.00000E+00  9.000E+00
      21    -1     0     0   512   502  0.000000000E+00  0.000000000E+00 -4.904669056E+02  4.904669056E+02  0.000000000E+00  0.00000E+00  9.000E+00
      23     2     1     2     0     0  2.577907963E+01  9.893728984E+01  7.559952248E+01  1.564726411E+02  9.118800000E+01  0.00000E+00  9.000E+00
     -13     1     3     3     0     0 -8.125349848E+00  7.677776141E+01  8.506460826E+01  1.148775205E+02  1.057000000E-01  0.00000E+00  9.000E+00
      13     1     3     3     0     0  3.390442948E+01  2.215952843E+01 -9.465085783E+00  4.159512063E+01  1.057000000E-01  0.00000E+00  9.000E+00
       1     1     1     2   501     0  3.571273401E+01 -1.142124779E+01  7.553106593E+01  8.432612342E+01  3.300000000E-01  0.00000E+00  9.000E+00
      -3     1     1     2     0   502  3.326890495E+01 -5.766181730E+00 -1.241813122E+01  3.597956185E+01  5.000000000E-01  0.00000E+00  9.000E+00
       4     1     1     2   512     0 -9.476071859E+01 -8.174986033E+01 -4.121413626E+02  4.307265794E+02  1.500000000E+00  0.00000E+00  9.000E+00
</event>
<event>
      8  10001  1.25055E-02  5.91734E+01 -1.00000E+00  1.37883E-01
       2    -1     0     0   501     0  0.000000000E+00  0.000000000E+00  1.957819612E+03  1.957819612E+03  0.000000000E+00  0.00000E+00  9.000E+00
      -4    -1     0     0     0   502  0.000000000E+00  0.000000000E+00 -1.045947578E+01  1.045947578E+01  0.000000000E+00  0.00000E+00  9.000E+00
      23     2     1     2     0     0  2.304092998E+01 -3.003219863E+01  2.853477370E+02  3.019460213E+02  9.118800000E+01  0.00000E+00  9.000E+00
     -13     1     3     3     0     0  2.529380991E+01  2.723132735E+01  7.188667078E+01  8.092605648E+01  1.057000000E-01  0.00000E+00  9.000E+00
      13     1     3     3     0     0 -2.252879926E+00 -5.726352597E+01  2.134610662E+02  2.210199648E+02  1.057000000E-01  0.00000E+00  9.000E+00
       1     1     1     2   501     0 -2.880987209E+01  6.255698455E+01  8.590756050E+02  8.618319959E+02  3.300000000E-01  0.00000E+00  9.000E+00
      -3     1     1     2     0   511  7.015325175E+00 -1.878388909E+01  1.408924671E+02  1.423129881E+02  5.000000000E-01  0.00000E+00  9.000E+00
      21     1     1     2   511   502 -1.246383068E+00 -1.374089683E+01  6.620443275E+02  6.621880830E+02  1.321449896E-05  0.00000E+00  9.000E+00
</event>
<event>
      8  10001  1.10824E-02  2.06339E+02 -1.00000E+00  1.13068E-01
       1    -1     0     0   501     0  0.000000000E+00  0.000000000E+00  2.094313976E+02  2.094313976E+02  0.000000000E+00  0.00000E+00  9.000E+00
       2    -1     0     0   502     0  0.000000000E+00  0.000000000E+00 -2.549066839E+02  2.549066839E+02  0.000000000E+00  0.00000E+00  9.000E+00
      23     2     1     2     0     0 -3.846652666E+01  1.371401052E+02  6.851096097E+01  1.824721493E+02  9.118800000E+01  0.00000E+00  9.000E+00
     -13     1     3     3     0     0  1.859768056E+01  1.581362185E+01  3.767959386E+01  4.489662932E+01  1.057000000E-01  0.00000E+00  9.000E+00
      13     1     3     3     0     0 -5.706420722E+01  1.213264834E+02  3.083136711E+01  1.375755199E+02  1.057000000E-01  0.00000E+00  9.000E+00
       2     1     1     2   512     0  4.115605756E+01 -1.321209997E+01  4.240518468E+01  6.055319353E+01  3.300000000E-01  0.00000E+00  9.000E+00
       1     1     1     2   502     0  3.873270945E+01 -7.675900534E+01 -5.501253000E+01  1.020718131E+02  3.300000000E-01  0.00000E+00  9.000E+00
      21     1     1     2   501   512 -4.142224035E+01 -4.716899991E+01 -1.013789020E+02  1.192409255E+02  3.303624740E-06  0.00000E+00  9.000E+00
</event>
<event>
      8  10001  1.29243E-02  3.97713E+02 -1.00000E+00  1.03355E-01
       1    -1     0     0   501     0  0.000000000E+00  0.000000000E+00  8.071538292E+02  8.071538292E+02  0.000000000E+00  0.00000E+00  9.000E+00
      -1    -1     0     0     0   502  0.000000000E+00  0.000000000E+00 -3.683041646E+02  3.683041646E+02  0.000000000E+00  0.00000E+00  9.000E+00
      23     2     1     2     0     0 -9.297445765E+01 -2.925643601E+01  5.112641240E+02  5.283998908E+02  9.118800000E+01  0.00000E+00  9.000E+00
     -13     1     3     3     0     0 -5.538654446E+01 -5.280348615E+01  4.201656239E+02  4.270773234E+02  1.057000000E-01  0.00000E+00  9.000E+00
      13     1     3     3     0     0 -3.758791320E+01  2.354705014E+01  9.109850005E+01  1.013225674E+02  1.057000000E-01  0.00000E+00  9.000E+00
       2     1     1     2   501     0  1.856080087E-01  2.082811750E+01 -1.050778880E+02  1.071229031E+02  3.300000000E-01  0.00000E+00  9.000E+00
      -2     1     1     2     0   511  4.414912128E+00 -2.508771584E+01 -2.451571783E+02  2.464772523E+02  3.300000000E-01  0.00000E+00  9.000E+00
      21     1     1     2   511   502  8.837393752E+01  3.351603435E+01  2.778206069E+02  2.934579476E+02  3.814697266E-06  0.00000E+00  9.000E+00
</event>
<event>
      8  10001  1.05514E-02  2.71509E+02 -1.00000E+00  1.08787E-01
       1    -1     0     0   501     0  0.000000000E+00  0.000000000E+00  3.460853502E+02  3.460853502E+02  0.000000000E+00  0.00000E+00  9.000E+00
      -3    -1     0     0     0   502  0.000000000E+00  0.000000000E+00 -8.735617356E+02  8.735617356E+02  0.000000000E+00  0.00000E+00  9.000E+00
      23     2     1     2     0     0  9.979536257E+01 -3.110262969E+02 -1.883214175E+02  3.879132369E+02  9.118800000E+01  0.00000E+00  9.000E+00
     -13     1     3     3     0     0  7.435910865E+01 -2.132332902E+02 -1.756078126E+02  2.860696210E+02  1.057000000E-01  0.00000E+00  9.000E+00
      13     1     3     3     0     0  2.543625392E+01 -9.779300669E+01 -1.271360496E+01  1.018436159E+02  1.057000000E-01  0.00000E+00  9.000E+00
       2     1     1     2   501     0 -2.133207000E+01  3.866109645E+02 -8.156160073E+01  3.956962202E+02  3.300000000E-01  0.00000E+00  9.000E+00
      -4     1     1     2     0   512 -7.545980827E+01 -9.473538225E+00 -3.295852960E+02  3.382493872E+02  1.500000000E+00  0.00000E+00  9.000E+00
      21     1     1     2   512   502 -3.003484304E+00 -6.611112938E+01  7.199192884E+01  9.778824144E+01  3.814697266E-06  0.00000E+00  9.000E+00
</event>
<event>
      8  10001  1.20058E-02  1.60897E+02 -1.00000E+00  1.17257E-01
       1    -1     0     0   501     0  0.000000000E+00  0.000000000E+00  8.944895502E+02  8.944895502E+02  0.000000000E+00  0.00000E+00  9.000E+00
       2    -1     0     0   502     0  0.000000000E+00  0.000000000E+00 -1.121320583E+02  1.121320583E+02  0.000000000E+00  0.00000E+00  9.000E+00
      23     2     1     2     0     0  8.267504641E+01 -5.607505180E+01 -5.425585867E+00  1.353671417E+02  9.118800000E+01  0.00000E+00  9.000E+00
     -13     1     3     3     0     0  6.184892994E+01 -8.147004591E+01 -6.635042120E+00  1.025021633E+02  1.057000000E-01  0.00000E+00  9.000E+00
      13     1     3     3     0     0  2.082611647E+01  2.539499411E+01  1.209456253E+00  3.286497847E+01  1.057000000E-01  0.00000E+00  9.000E+00
       2     1     1     2   501     0 -7.349240374E+01  9.426972561E+01  5.211798390E+01  1.304005664E+02  3.300000000E-01  0.00000E+00  9.000E+00
       1     1     1     2   511     0 -1.023021563E+01 -3.439985477E+01  1.218391509E+02  1.270153334E+02  3.300000000E-01  0.00000E+00  9.000E+00
      21     1     1     2   502   511  1.047572959E+00 -3.794819039E+00  6.138259430E+02  6.138385670E+02  7.629394531E-06  0.00000E+00  9.000E+00
</event>
<event>
      8  10001  4.17495E-02  1.43208E+02 -1.00000E+00  1.19328E-01
       2    -1     0     0   501     0  0.000000000E+00  0.000000000E+00  3.517616116E+02  3.517616116E+02  0.000000000E+00  0.00000E+00  9.000E+00
       4    -1     0     0   502     0  0.000000000E+00  0.000000000E+00 -7.469549393E+01  7.469549393E+01  0.000000000E+00  0.00000E+00  9.000E+00
      23     2     1     2     0     0 -1.131460237E+01  2.419774347E+00  1.102946752E+01  9.257848580E+01  9.118800000E+01  0.00000E+00  9.000E+00
     -13     1     3     3     0     0 -1.756401036E+01 -3.153157742E+01  3.521575277E+01  5.042712812E+01  1.057000000E-01  0.00000E+00  9.000E+00
      13     1     3     3     0     0  6.249407992E+00  3.395135177E+01 -2.418628525E+01  4.215135768E+01  1.057000000E-01  0.00000E+00  9.000E+00
       2     1     1     2   512     0 -1.965283515E+00  4.728641097E-01  1.726845030E+01  1.738948578E+01  3.300000000E-01  0.00000E+00  9.000E+00
       4     1     1     2   502     0  2.072633808E+01 -6.591751393E+00  2.816906290E+02  2.825329941E+02  1.500000000E+00  0.00000E+00  9.000E+00
      21     1     1     2   501   512 -7.446452201E+00  3.699112936E+00 -3.292242921E+01  3.395613982E+01  0.000000000E+00  0.00000E+00  9.000E+00
</event>
<event>
      8  10001  1.08242E-02  3.98005E+02 -1.00000E+00  1.03345E-01
      -1    -1     0     0     0   501  0.000000000E+00  0.000000000E+00  1.597935916E+02  1.597935916E+02  0.000000000E+00  0.00000E+00  9.000E+00
      -4    -1     0     0     0   502  0.000000000E+00  0.000000000E+00 -8.119281813E+02  8.119281813E+02  0.000000000E+00  0.00000E+00  9.000E+00
      23     2     1     2     0     0  7.156191671E+00  6.256901977E+01 -2.936561359E+02  3.138714240E+02  9.118800000E+01  0.00000E+00  9.000E+00
     -13     1     3     3     0     0  8.854718561E+00  7.633914147E+01 -2.892928596E+02  2.993266449E+02  1.057000000E-01  0.00000E+00  9.000E+00
      13     1     3     3     0     0 -1.698526891E+00 -1.377012171E+01 -4.363276237E+00  1.454477904E+01  1.057000000E-01  0.00000E+00  9.000E+00
      -2     1     1     2     0   511  4.189923606E+01 -1.886674078E+02  2.939078972E+01  1.954862250E+02  3.300000000E-01  0.00000E+00  9.000E+00
      -3     1     1     2     0   502 -2.454159813E+00  3.099807042E+01  2.260593462E+01  3.844712668E+01  5.000000000E-01  0.00000E+00  9.000E+00
      21     1     1     2   511   501 -4.660126792E+01  9.510031760E+01 -4.104751782E+02  4.239169972E+02  0.000000000E+00  0.00000E+00  9.000E+00
</event>
<event>
      8  10001  2.43133E-02  9.47700E+01 -1.00000E+00  1.27317E-01
       2    -1     0     0   501     0  0.000000000E+00  0.000000000E+00  4.301666402E+02  4.301666402E+02  0.000000000E+00  0.00000E+00  9.000E+00
       3    -1     0     0   502     0  0.000000000E+00  0.000000000E+00 -2.876963178E+01  2.876963178E+01  0.000000000E+00  0.00000E+00  9.000E+00
      23     2     1     2     0     0 -2.878832925E+00 -1.205617681E+01  1.150321771E+02  1.473135845E+02  9.118800000E+01  0.00000E+00  9.000E+00
     -13     1     3     3     0     0 -2.781552978E+01 -8.762688913E+00  1.183971923E+02  1.219360272E+02  1.057000000E-01  0.00000E+00  9.000E+00
      13     1     3     3     0     0  2.493669686E+01 -3.293487894E+00 -3.365015274E+00  2.537755727E+01  1.057000000E-01  0.00000E+00  9.000E+00
       2     1     1     2   501     0  4.405169988E+00  1.174691933E+01  1.279257466E+02  1.285398817E+02  3.300000000E-01  0.00000E+00  9.000E+00
       3     1     1     2   511     0 -1.066471473E+01  6.577166269E+00  1.679876545E+02  1.684550305E+02  5.000000000E-01  0.00000E+00  9.000E+00
      21     1     1     2   502   511  9.138377670E+00 -6.267908795E+00 -9.548569686E+00  1.462777530E+01  1.445335824E-06  0.00000E+00  9.000E+00
</event>
<event>
      8  10001  1.08571E-02  2.39874E+02 -1.00000E+00  1.10678E-01
       2    -1     0     0   501     0  0.000000000E+00  0.000000000E+00  2.223259682E+02  2.223259682E+02  0.000000000E+00  0.00000E+00  9.000E+00
      -2    -1     0     0     0   502  0.000000000E+00  0.000000000E+00 -2.260665080E+02  2.260665080E+02  0.000000000E+00  0.00000E+00  9.000E+00
      23     2     1     2     0     0 -8.986768910E+00  1.596641668E+01  1.240000939E+02  1.550063325E+02  9.118800000E+01  0.00000E+00  9.000E+00
     -13     1     3     3     0     0 -1.821440948E+01  4.129246463E+01  2.335924460E+01  5.081828242E+01  1.057000000E-01  0.00000E+00  9.000E+00
      13     1     3     3     0     0  9.227640565E+00 -2.532604794E+01  1.006408493E+02  1.041880500E+02  1.057000000E-01  0.00000E+00  9.000E+00
       1     1     1     2   512     0  4.382835402E+01 -2.121627741E+01  3.025621623E+01  5.732889816E+01  3.300000000E-01  0.00000E+00  9.000E+00
      -1     1     1     2     0   502 -3.234088903E+01 -8.029189356E+01 -5.683085557E+01  1.035498736E+02  3.300000000E-01  0.00000E+00  9.000E+00
      21     1     1     2   501   512 -2.500696085E+00  8.554175428E+01 -1.011659944E+02  1.325073719E+02  4.046097457E-06  0.00000E+00  9.000E+00
</event>
<event>
      8  10001  1.19614E-02  1.28041E+02 -1.00000E+00  1.21392E-01
      -3    -1     0     0     0   501  0.000000000E+00  0.000000000E+00  1.325449314E+02  1.325449314E+02  0.000000000E+00  0.00000E+00  9.000E+00
       3    -1     0     0   502     0  0.000000000E+00  0.000000000E+00 -1.723074381E+02  1.723074381E+02  0.000000000E+00  0.00000E+00  9.000E+00
      23     2     1     2     0     0  7.365959857E+01 -8.995161338E+00  5.866778976E+01  1.313918197E+02  9.118800000E+01  0.00000E+00  9.000E+00
     -13     1     3     3     0     0  7.528540168E+01 -3.764882758E+01  2.642225776E+01  8.822399221E+01  1.057000000E-01  0.00000E+00  9.000E+00
      13     1     3     3     0     0 -1.625803110E+00  2.865366624E+01  3.224553200E+01  4.316782750E+01  1.057000000E-01  0.00000E+00  9.000E+00
      -4     1     1     2     0   511  7.097466340E+00  3.383595633E+00  1.210719979E+01  1.451402889E+01  1.500000000E+00  0.00000E+00  9.000E+00
       4     1     1     2   502     0 -6.706654447E+01 -2.405333036E+01 -4.125042311E+01  8.234276832E+01  1.500000000E+00  0.00000E+00  9.000E+00
      21     1     1     2   511   501 -1.369052044E+01  2.966489606E+01 -6.928707317E+01  7.660375263E+01  1.348699152E-06  0.00000E+00  9.000E+00
</event>
<event>
      8  10001  1.05311E-02  9.72750E+02 -1.00000E+00  9.25560E-02
       2    -1     0     0   501     0  0.000000000E+00  0.000000000E+00  1.414009464E+03  1.414009464E+03  0.000000000E+00  0.00000E+00  9.000E+00
       1    -1     0     0   502     0  0.000000000E+00  0.000000000E+00 -2.620251564E+02  2.620251564E+02  0.000000000E+00  0.00000E+00  9.000E+00
      23     2     1     2     0     0 -8.603835502E+00  3.047541450E+01  4.855751606E+02  4.950770292E+02  9.118800000E+01  0.00000E+00  9.000E+00
     -13     1     3     3     0     0  1.943388731E+01 -1.715759197E+01  3.082284357E+02  3.093167288E+02  1.057000000E-01  0.00000E+00  9.000E+00
      13     1     3     3     0     0 -2.803772281E+01  4.763300647E+01  1.773467249E+02  1.857603004E+02  1.057000000E-01  0.00000E+00  9.000E+00
       1     1     1     2   511     0 -4.500528015E+00  2.162850012E+01  4.167211187E+02  4.173064179E+02  3.300000000E-01  0.00000E+00  9.000E+00
       2     1     1     2   502     0  1.297455736E+02  2.735660818E+02  2.851476880E+02  4.159106008E+02  3.300000000E-01  0.00000E+00  9.000E+00
      21     1     1     2   501   511 -1.166412101E+02 -3.256699964E+02 -3.545965947E+01  3.477405727E+02  6.975526256E-06  0.00000E+00  9.000E+00
</event>
<event>
      8  10001  1.36592E-02  5.38477E+01 -1.00000E+00  1.40219E-01
       1    -1     0     0   501     0  0.000000000E+00  0.000000000E+00  3.893924986E+01  3.893924986E+01  0.000000000E+00  0.00000E+00  9.000E+00
      -2    -1     0     0     0   502  0.000000000E+00  0.000000000E+00 -3.276333959E+02  3.276333959E+02  0.000000000E+00  0.00000E+00  9.000E+00
      23     2     1     2     0     0 -4.554707319E+01 -5.165798615E+01 -2.333461581E+02  2.598244874E+02  9.118800000E+01  0.00000E+00  9.000E+00
     -13     1     3     3     0     0 -5.288853715E+01  7.621836724E+00 -1.283028089E+02  1.389852931E+02  1.057000000E-01  0.00000E+00  9.000E+00
      13     1     3     3     0     0  7.341463964E+00 -5.927982287E+01 -1.050433492E+02  1.208391943E+02  1.057000000E-01  0.00000E+00  9.000E+00
       1     1     1     2   501     0  2.197603337E+01  5.180995424E+01 -2.996628845E+01  6.375974235E+01  3.300000000E-01  0.00000E+00  9.000E+00
      -2     1     1     2     0   511  7.567900502E-01  2.397460358E+00 -1.899057250E+01  1.915910466E+01  3.300000000E-01  0.00000E+00  9.000E+00
      21     1     1     2   511   502  2.281424976E+01 -2.549428450E+00 -6.391127059E+00  2.382931142E+01  4.915124924E-07  0.00000E+00  9.000E+00
</event>
<event>
      8  10001  1.66486E-02  7.54403E+01 -1.00000E+00  1.32219E-01
       4    -1     0     0   501     0  0.000000000E+00  0.000000000E+00  2.940480520E+01  2.940480520E+01  0.000000000E+00  0.00000E+00  9.000E+00
       2    -1     0     0   502     0  0.000000000E+00  0.000000000E+00 -8.075935221E+02  8.075935221E+02  0.000000000E+00  0.00000E+00  9.000E+00
      23     2     1     2     0     0  2.590307676E+01 -6.731773060E+00 -8.071022229E+01  1.246823062E+02  9.118800000E+01  0.00000E+00  9.000E+00
     -13     1     3     3     0     0  3.644080271E+01  3.051876971E+01 -6.982571826E+01  8.446874872E+01  1.057000000E-01  0.00000E+00  9.000E+00
      13     1     3     3     0     0 -1.053772595E+01 -3.725054277E+01 -1.088450403E+01  4.021355748E+01  1.057000000E-01  0.00000E+00  9.000E+00
       4     1     1     2   501     0 -3.407756868E+01 -1.241956271E+01 -6.708655573E+02  6.718469857E+02  1.500000000E+00  0.00000E+00  9.000E+00
       2     1     1     2   512     0 -2.471834618E+00 -7.737371236E-01 -1.469875102E+01  1.492885853E+01  3.300000000E-01  0.00000E+00  9.000E+00
      21     1     1     2   502   512  1.064632654E+01  1.992507290E+01 -1.191418628E+01  2.554017685E+01  9.078709013E-07  0.00000E+00  9.000E+00
</event>
<event>
      8  10001  2.33971E-02  2.32927E+01 -1.00000E+00  1.65212E-01
       3    -1     0     0   501     0  0.000000000E+00  0.000000000E+00  8.359697121E+01  8.359697121E+01  0.000000000E+00  0.00000E+00  9.000E+00
       2    -1     0     0   502     0  0.000000000E+00  0.000000000E+00 -3.912256184E+02  3.912256184E+02  0.000000000E+00  0.00000E+00  9.000E+00
      23     2     1     2     0     0  2.221731884E+01 -4.135335160E+01  4.595486416E+01  1.123868757E+02  9.118800000E+01  0.00000E+00  9.000E+00
     -13     1     3     3     0     0  2.834542343E+01 -4.319441857E+01 -1.284689013E+01  5.323790552E+01  1.057000000E-01  0.00000E+00  9.000E+00
      13     1     3     3     0     0 -6.128104594E+00  1.841066973E+00  5.880175429E+01  5.914897018E+01  1.057000000E-01  0.00000E+00  9.000E+00
       3     1     1     2   511     0 -1.070007299E+01 -2.295815038E+00 -7.463097431E+00  1.325557060E+01  5.000000000E-01  0.00000E+00  9.000E+00
       2     1     1     2   502     0 -1.193720183E+01  4.186652298E+01 -3.135241084E+02  3.165324280E+02  3.300000000E-01  0.00000E+00  9.000E+00
      21     1     1     2   501   511  4.199559808E-01  1.782643660E+00 -3.259630550E+01  3.264771529E+01  1.907348633E-06  0.00000E+00  9.000E+00
</event>
<event>
      8  10001  1.09581E-02  3.20174E+02 -1.00000E+00  1.06371E-01
       1    -1     0     0   501     0  0.000000000E+00  0.000000000E+00  3.465936555E+02  3.465936555E+02  0.000000000E+00  0.00000E+00  9.000E+00
      -1    -1     0     0     0   502  0.000000000E+00  0.000000000E+00 -1.534599252E+03  1.534599252E+03  0.000000000E+00  0.00000E+00  9.000E+00
      23     2     1     2     0     0 -3.568856254E+02 -2.723618380E+02 -1.201172378E+03  1.285565500E+03  9.118800000E+01  0.00000E+00  9.000E+00
     -13     1     3     3     0     0 -3.571794571E+02 -2.766982854E+02 -1.197408527E+03  1.279814946E+03  1.057000000E-01  0.00000E+00  9.000E+00
      13     1     3     3     0     0  2.938317250E-01  4.336447400E+00 -3.763851373E+00  5.750553260E+00  1.057000000E-01  0.00000E+00  9.000E+00
       2     1     1     2   501     0  3.202983709E+02  2.568628373E+02  4.682015537E+01  4.132333474E+02  3.300000000E-01  0.00000E+00  9.000E+00
      -2     1     1     2     0   511 -1.587079251E+01 -8.472238441E+00 -9.587742342E+01  9.755126909E+01  3.300000000E-01  0.00000E+00  9.000E+00
      21     1     1     2   511   502  5.245804702E+01  2.397123912E+01  6.222404934E+01  8.484279178E+01  5.878843310E-06  0.00000E+00  9.000E+00
</event>
<event>
      8  10001  1.49682E-02  1.47805E+02 -1.00000E+00  1.18759E-01
      -2    -1     0     0     0   501  0.000000000E+00  0.000000000E+00  6.794976062E+01  6.794976062E+01  0.000000000E+00  0.00000E+00  9.000E+00
       2    -1     0     0   502     0  0.000000000E+00  0.000000000E+00 -1.007545819E+03  1.007545819E+03  0.000000000E+00  0.00000E+00  9.000E+00
      23     2     1     2     0     0  6.057718539E+00  1.088331660E+01 -6.159901737E+02  6.228276551E+02  9.118800000E+01  0.00000E+00  9.000E+00
     -13     1     3     3     0     0  9.250539115E+00  2.416077305E+01 -4.680993051E+01  5.348360678E+01  1.057000000E-01  0.00000E+00  9.000E+00
      13     1     3     3     0     0 -3.192820576E+00 -1.327745644E+01 -5.691802432E+02  5.693440483E+02  1.057000000E-01  0.00000E+00  9.000E+00
      -2     1     1     2     0   501  2.068442737E+01 -1.413167676E+01  5.649222438E+01  6.179830207E+01  3.300000000E-01  0.00000E+00  9.000E+00
       2     1     1     2   512     0 -2.912532749E+01  3.734558889E+00 -3.467912763E+01  4.544207768E+01  3.300000000E-01  0.00000E+00  9.000E+00
      21     1     1     2   502   512  2.383181582E+00 -4.861987292E-01 -3.454189816E+02  3.454275449E+02  8.529922400E-06  0.00000E+00  9.000E+00
</event>
<event>
      8  10001  1.32322E+00  9.20225E+00 -1.00000E+00  2.06535E-01
       2    -1     0     0   501     0  0.000000000E+00  0.000000000E+00  7.757512673E+00  7.757512673E+00  0.000000000E+00  0.00000E+00  9.000E+00
       2    -1     0     0   502     0  0.000000000E+00  0.000000000E+00 -4.481020552E+03  4.481020552E+03  0.000000000E+00  0.00000E+00  9.000E+00
      23     2     1     2     0     0  5.194780878E+00  2.588017201E+00 -4.310478806E+03  4.311447144E+03  9.118800000E+01  0.00000E+00  9.000E+00
     -13     1     3     3     0     0 -4.704539716E+00  1.719725500E+01 -4.143500246E+03  4.143538605E+03  1.057000000E-01  0.00000E+00  9.000E+00
      13     1     3     3     0     0  9.899320594E+00 -1.460923780E+01 -1.669785607E+02  1.679085384E+02  1.057000000E-01  0.00000E+00  9.000E+00
       2     1     1     2   501     0 -3.815451081E+00  3.504418137E+00  6.226369168E+00  8.106490390E+00  3.300000000E-01  0.00000E+00  9.000E+00
       2     1     1     2   511     0  1.900167918E+00 -1.893057653E+00 -3.338261926E+01  3.349182697E+01  3.300000000E-01  0.00000E+00  9.000E+00
      21     1     1     2   502   511 -3.279497715E+00 -4.199377685E+00 -1.356279826E+02  1.357326031E+02  5.046370146E-06  0.00000E+00  9.000E+00
</event>
<event>
      8  10001  1.06705E-02  2.50654E+02 -1.00000E+00  1.10000E-01
       2    -1     0     0   501     0  0.000000000E+00  0.000000000E+00  1.342228699E+02  1.342228699E+02  0.000000000E+00  0.00000E+00  9.000E+00
       2    -1     0     0   502     0  0.000000000E+00  0.000000000E+00 -6.817674310E+02  6.817674310E+02  0.000000000E+00  0.00000E+00  9.000E+00
      23     2     1     2     0     0 -1.051296657E+01 -8.240609720E+00 -2.112158574E+02  2.304470002E+02  9.118800000E+01  0.00000E+00  9.000E+00
     -13     1     3     3     0     0  2.691600319E+01 -3.326036389E+00 -1.783324179E+02  1.803829155E+02  1.057000000E-01  0.00000E+00  9.000E+00
      13     1     3     3     0     0 -3.742896977E+01 -4.914573332E+00 -3.288343951E+01  5.006408468E+01  1.057000000E-01  0.00000E+00  9.000E+00
       2     1     1     2   512     0 -1.432940560E+01  3.741173077E-01  1.001709792E+02  1.011919256E+02  3.300000000E-01  0.00000E+00  9.000E+00
       2     1     1     2   502     0  1.077213915E+02 -3.004530188E+01 -1.775863372E+02  2.098657533E+02  3.300000000E-01  0.00000E+00  9.000E+00
      21     1     1     2   501   512 -8.287901933E+01  3.791179430E+01 -2.589133457E+02  2.744856218E+02  3.814697266E-06  0.00000E+00  9.000E+00
</event>
<event>
      8  10001  1.24157E-02  8.90181E+01 -1.00000E+00  1.28625E-01
       2    -1     0     0   501     0  0.000000000E+00  0.000000000E+00  8.709816324E+02  8.709816324E+02  0.000000000E+00  0.00000E+00  9.000E+00
      -2    -1     0     0     0   502  0.000000000E+00  0.000000000E+00 -2.574326330E+01  2.574326330E+01  0.000000000E+00  0.00000E+00  9.000E+00
      23     2     1     2     0     0 -4.238548701E+01 -4.589997958E+01  5.712267628E+02  5.818235158E+02  9.118800000E+01  0.00000E+00  9.000E+00
     -13     1     3     3     0     0 -6.673750620E+01 -3.958301474E+01  5.059700000E+02  5.118851061E+02  1.057000000E-01  0.00000E+00  9.000E+00
      13     1     3     3     0     0  2.435201919E+01 -6.316964833E+00  6.525676280E+01  6.993840967E+01  1.057000000E-01  0.00000E+00  9.000E+00
       2     1     1     2   501     0 -2.749122870E+01  1.637190611E+01  1.989845334E+01  3.768108690E+01  3.300000000E-01  0.00000E+00  9.000E+00
      -2     1     1     2     0   511  1.721554933E+01  9.317558843E+00  2.947439665E+00  1.979869547E+01  3.300000000E-01  0.00000E+00  9.000E+00
      21     1     1     2   511   502  5.266116637E+01  2.021051462E+01  2.511657133E+02  2.574215975E+02  0.000000000E+00  0.00000E+00  9.000E+00
</event>
<event>
      8  10001  1.06171E-02  3.57621E+02 -1.00000E+00  1.04811E-01
      -4    -1     0     0     0   501  0.000000000E+00  0.000000000E+00  6.017619839E+01  6.017619839E+01  0.000000000E+00  0.00000E+00  9.000E+00
       2    -1     0     0   502     0  0.000000000E+00  0.000000000E+00 -2.570535480E+03  2.570535480E+03  0.000000000E+00  0.00000E+00  9.000E+00
      23     2     1     2     0     0 -1.610723087E+02  2.056191329E+01 -4.934621218E+02  5.274345437E+02  9.118800000E+01  0.00000E+00  9.000E+00
     -13     1     3     3     0     0 -5.545878718E+01 -3.421890552E+01 -2.139623758E+02  2.236660904E+02  1.057000000E-01  0.00000E+00  9.000E+00
      13     1     3     3     0     0 -1.056135215E+02  5.478081880E+01 -2.794997461E+02  3.037684534E+02  1.057000000E-01  0.00000E+00  9.000E+00
      -3     1     1     2     0   512  7.376859931E+01  9.502892685E+01 -5.885114006E+01  1.339253892E+02  5.000000000E-01  0.00000E+00  9.000E+00
       1     1     1     2   502     0  9.342008853E+01 -9.245295131E+01 -7.751773971E+02  7.862410362E+02  3.300000000E-01  0.00000E+00  9.000E+00
      21     1     1     2   512   501 -6.116379186E+00 -2.313788883E+01 -1.182868623E+03  1.183110709E+03  0.000000000E+00  0.00000E+00  9.000E+00
</event>
<event>
      8  10001  1.07890E-02  7.88305E+02 -1.00000E+00  9.48830E-02
      -1    -1     0     0     0   501  0.000000000E+00  0.000000000E+00  1.734510055E+02  1.734510055E+02  0.000000000E+00  0.00000E+00  9.000E+00
      -4    -1     0     0     0   502  0.000000000E+00  0.000000000E+00 -1.739990699E+03  1.739990699E+03  0.000000000E+00  0.00000E+00  9.000E+00
      23     2     1     2     0     0  7.712570714E+01  7.515514448E+01  5.973677382E+01  1.532331685E+02  9.118800000E+01  0.00000E+00  9.000E+00
     -13     1     3     3     0     0  9.548603017E+01  6.868472701E+01  3.700943771E+01  1.233080830E+02  1.057000000E-01  0.00000E+00  9.000E+00
      13     1     3     3     0     0 -1.836032303E+01  6.470417472E+00  2.272733611E+01  2.992508552E+01  1.057000000E-01  0.00000E+00  9.000E+00
      -2     1     1     2     0   511 -7.096093370E+00  5.958090831E+01 -4.261080037E+01  7.359367082E+01  3.300000000E-01  0.00000E+00  9.000E+00
      -3     1     1     2     0   502 -5.594723172E+01 -1.626976676E+02 -9.291473149E+01  1.955352171E+02  5.000000000E-01  0.00000E+00  9.000E+00
      21     1     1     2   511   501 -1.408238205E+01  2.796161485E+01 -1.490750936E+03  1.491079648E+03  5.285799584E-05  0.00000E+00  9.000E+00
</event>
<event>
      8  10001  1.78048E-02  4.96292E+01 -1.00000E+00  1.42306E-01
       1    -1     0     0   501     0  0.000000000E+00  0.000000000E+00  4.164235759E+01  4.164235759E+01  0.000000000E+00  0.00000E+00  9.000E+00
      -1    -1     0     0     0   502  0.000000000E+00  0.000000000E+00 -2.126087686E+02  2.126087686E+02  0.000000000E+00  0.00000E+00  9.000E+00
      23     2     1     2     0     0 -9.585486104E+00  3.159487815E+01 -9.123753478E+01  1.331527580E+02  9.118800000E+01  0.00000E+00  9.000E+00
     -13     1     3     3     0     0 -3.038637399E+01 -1.348996861E+00  3.595412045E+00  3.062824965E+01  1.057000000E-01  0.00000E+00  9.000E+00
      13     1     3     3     0     0  2.080088788E+01  3.294387501E+01 -9.483294683E+01  1.025245084E+02  1.057000000E-01  0.00000E+00  9.000E+00
       2     1     1     2   501     0  2.035490297E+01  1.294376423E+00 -6.930405245E+01  7.224374071E+01  3.300000000E-01  0.00000E+00  9.000E+00
      -2     1     1     2     0   511 -1.622591241E+01 -4.111016317E+00 -1.011853949E+01  1.956206610E+01  3.300000000E-01  0.00000E+00  9.000E+00
      21     1     1     2   511   502  5.456495544E+00 -2.877823825E+01 -3.062842781E-01  2.929256135E+01  1.510810759E-06  0.00000E+00  9.000E+00
</event>
<event>
      8  10001  1.05554E-02  4.38260E+02 -1.00000E+00  1.02060E-01
       2    -1     0     0   501     0  0.000000000E+00  0.000000000E+00  5.147908469E+02  5.147908469E+02  0.000000000E+00  0.00000E+00  9.000E+00
       1    -1     0     0   502     0  0.000000000E+00  0.000000000E+00 -2.718722985E+02  2.718722985E+02  0.000000000E+00  0.00000E+00  9.000E+00
      23     2     1     2     0     0 -1.895139150E+01  2.771233289E+01 -1.888393075E+01  9.898981169E+01  9.118800000E+01  0.00000E+00  9.000E+00
     -13     1     3     3     0     0 -4.533041675E+01 -2.970625097E+00  1.324789224E+01  4.732007098E+01  1.057000000E-01  0.00000E+00  9.000E+00
      13     1     3     3     0     0  2.637902525E+01  3.068295799E+01 -3.213182299E+01  5.166974071E+01  1.057000000E-01  0.00000E+00  9.000E+00
       1     1     1     2   512     0 -7.835734790E+00  1.410544959E+02  2.677789870E+02  3.027597468E+02  3.300000000E-01  0.00000E+00  9.000E+00
       2     1     1     2   502     0  5.451651646E+01 -1.421504346E+02  1.562723530E+02  2.181741364E+02  3.300000000E-01  0.00000E+00  9.000E+00
      21     1     1     2   501   512 -2.772939017E+01 -2.661639419E+01 -1.622488607E+02  1.667394504E+02  4.672030912E-06  0.00000E+00  9.000E+00
</event>
<event>
      8  10001  1.08644E-02  3.87458E+02 -1.00000E+00  1.03709E-01
       2    -1     0     0   501     0  0.000000000E+00  0.000000000E+00  3.124983640E+02  3.124983640E+02  0.000000000E+00  0.00000E+00  9.000E+00
       4    -1     0     0   502     0  0.000000000E+00  0.000000000E+00 -3.788130466E+02  3.788130466E+02  0.000000000E+00  0.00000E+00  9.000E+00
      23     2     1     2     0     0  1.652264291E+02  1.786426662E+02 -1.031206676E+02  2.795748531E+02  9.118800000E+01  0.00000E+00  9.000E+00
     -13     1     3     3     0     0  2.954782852E+01  3.956541561E+01  1.571099479E+01  5.182029344E+01  1.057000000E-01  0.00000E+00  9.000E+00
      13     1     3     3     0     0  1.356786006E+02  1.390772506E+02 -1.188316624E+02  2.277545597E+02  1.057000000E-01  0.00000E+00  9.000E+00
       2     1     1     2   511     0 -5.518487030E+00  2.866831253E+00  3.956555848E+01  4.005264958E+01  3.300000000E-01  0.00000E+00  9.000E+00
       4     1     1     2   502     0  5.718357089E+01 -5.206498636E+01  7.465899327E+01  1.075032040E+02  1.500000000E+00  0.00000E+00  9.000E+00
      21     1     1     2   501   511 -2.168915129E+02 -1.294445111E+02 -7.741856671E+01  2.641807039E+02  6.397441800E-06  0.00000E+00  9.000E+00
</event>
<event>
      8  10001  1.11839E-02  9.63629E+01 -1.00000E+00  1.26973E-01
       1    -1     0     0   501     0  0.000000000E+00  0.000000000E+00  1.819850662E+03  1.819850662E+03  0.000000000E+00  0.00000E+00  9.000E+00
       2    -1     0     0   502     0  0.000000000E+00  0.000000000E+00 -5.044788886E+01  5.044788886E+01  0.000000000E+00  0.00000E+00  9.000E+00
      23     2     1     2     0     0  2.409446646E+02 -5.445225797E+01  1.283145297E+03  1.309884149E+03  9.118800000E+01  0.00000E+00  9.000E+00
     -13     1     3     3     0     0 -5.128154476E+00  3.917868276E+00  1.028164953E+01  1.213965196E+01  1.057000000E-01  0.00000E+00  9.000E+00
      13     1     3     3     0     0  2.460728191E+02 -5.837012625E+01  1.272863647E+03  1.297744497E+03  1.057000000E-01  0.00000E+00  9.000E+00
       2     1     1     2   501     0 -2.064896781E+02  4.552785145E+01  3.220243237E+02  3.852408939E+02  3.300000000E-01  0.00000E+00  9.000E+00
       1     1     1     2   511     0  1.255443011E+01 -2.256803818E-01  4.385835051E+01  4.562157885E+01  3.300000000E-01  0.00000E+00  9.000E+00
      21     1     1     2   502   511 -4.700941662E+01  9.150086901E+00  1.203748027E+02  1.295519296E+02  5.560829062E-06  0.00000E+00  9.000E+00
</event>
<event>
      8  10001  1.06237E-02  2.93567E+02 -1.00000E+00  1.07629E-01
       2    -1     0     0   501     0  0.000000000E+00  0.000000000E+00  4.544123198E+02  4.544123198E+02  0.000000000E+00  0.00000E+00  9.000E+00
       1    -1     0     0   502     0  0.000000000E+00  0.000000000E+00 -1.922236462E+02  1.922236462E+02  0.000000000E+00  0.00000E+00  9.000E+00
      23     2     1     2     0     0  4.774600551E+01 -4.822130767E+01  1.840285061E+02  2.163023762E+02  9.118800000E+01  0.00000E+00  9.000E+00
     -13     1     3     3     0     0 -2.037513830E+01 -3.659351438E+01  9.315072614E+01  1.021337383E+02  1.057000000E-01  0.00000E+00  9.000E+00
      13     1     3     3     0     0  6.812114381E+01 -1.162779329E+01  9.087777999E+01  1.141686379E+02  1.057000000E-01  0.00000E+00  9.000E+00
       1     1     1     2   512     0  2.169091655E+01 -9.479716902E+01  1.710599279E+02  1.967704423E+02  3.300000000E-01  0.00000E+00  9.000E+00
       2     1     1     2   502     0 -1.458049330E+01  1.269524867E+02 -3.972265192E+00  1.278491786E+02  3.300000000E-01  0.00000E+00  9.000E+00
      21     1     1     2   501   512 -5.485642876E+01  1.606598997E+01 -8.892749529E+01  1.057139689E+02  2.697398305E-06  0.00000E+00  9.000E+00
</event>
<event>
      8  10001  1.06814E-02  1.56230E+02 -1.00000E+00  1.17773E-01
      21    -1     0     0   501   511  0.000000000E+00  0.000000000E+00  1.297129085E+03  1.297129085E+03  0.000000000E+00  0.00000E+00  9.000E+00
       1    -1     0     0   502     0  0.000000000E+00  0.000000000E+00 -1.378328996E+03  1.378328996E+03  0.000000000E+00  0.00000E+00  9.000E+00
      23     2     1     2     0     0 -1.562572878E+02  4.888029003E+01  4.267722466E+02  4.661066665E+02  9.118800000E+01  0.00000E+00  9.000E+00
     -13     1     3     3     0     0 -8.593389727E+01 -1.852207162E+01  2.373477396E+02  2.531040547E+02  1.057000000E-01  0.00000E+00  9.000E+00
      13     1     3     3     0     0 -7.032339051E+01  6.740236165E+01  1.894245070E+02  2.130026118E+02  1.057000000E-01  0.00000E+00  9.000E+00
       1     1     1     2   501     0  2.825217170E+02 -1.268780686E+02 -1.213769586E+03  1.252658485E+03  3.300000000E-01  0.00000E+00  9.000E+00
       2     1     1     2   502     0  2.276267229E+01  1.248875506E+02 -8.358944768E+01  1.519945533E+02  3.300000000E-01  0.00000E+00  9.000E+00
      -2     1     1     2     0   511 -1.490271015E+02 -4.688977209E+01  7.893868754E+02  8.046983756E+02  3.300000000E-01  0.00000E+00  9.000E+00
</event>
<event>
      8  10001  1.31916E-02  7.72009E+01 -1.00000E+00  1.31706E-01
       2    -1     0     0   501     0  0.000000000E+00  0.000000000E+00  4.032326306E+01  4.032326306E+01  0.000000000E+00  0.00000E+00  9.000E+00
      -4    -1     0     0     0   502  0.000000000E+00  0.000000000E+00 -7.039355011E+02  7.039355011E+02  0.000000000E+00  0.00000E+00  9.000E+00
      23     2     1     2     0     0  2.559183322E+01 -3.244914860E+01 -5.286419529E+02  5.380385254E+02  9.118800000E+01  0.00000E+00  9.000E+00
     -13     1     3     3     0     0  5.614779219E+01 -2.915121020E+01 -4.325327260E+02  4.371349195E+02  1.057000000E-01  0.00000E+00  9.000E+00
      13     1     3     3     0     0 -3.055595896E+01 -3.297938396E+00 -9.610922688E+01  1.009036059E+02  1.057000000E-01  0.00000E+00  9.000E+00
       2     1     1     2   511     0 -1.313851369E+01  7.463863692E+00  2.244159224E+01  2.705667691E+01  3.300000000E-01  0.00000E+00  9.000E+00
      -4     1     1     2     0   502  2.673854864E+01 -9.932009703E+00 -3.030126838E+01  4.164146570E+01  1.500000000E+00  0.00000E+00  9.000E+00
      21     1     1     2   501   511 -3.919186818E+01  3.491729461E+01 -1.271106090E+02  1.375220961E+02  2.336015456E-06  0.00000E+00  9.000E+00
</event>
<event>
      8  10001  1.06713E-02  4.65854E+02 -1.00000E+00  1.01262E-01
      -2    -1     0     0     0   501  0.000000000E+00  0.000000000E+00  6.499153534E+02  6.499153534E+02  0.000000000E+00  0.00000E+00  9.000E+00
      -1    -1     0     0     0   502  0.000000000E+00  0.000000000E+00 -3.066607411E+02  3.066607411E+02  0.000000000E+00  0.00000E+00  9.000E+00
      23     2     1     2     0     0  5.307581099E+01  3.669528132E+01  4.955554663E+02  5.079902134E+02  9.118800000E+01  0.00000E+00  9.000E+00
     -13     1     3     3     0     0 -5.558673718E+00  2.374286390E+01  3.455928280E+02  3.464520693E+02  1.057000000E-01  0.00000E+00  9.000E+00
      13     1     3     3     0     0  5.863448471E+01  1.295241742E+01  1.499626383E+02  1.615381440E+02  1.057000000E-01  0.00000E+00  9.000E+00
      -1     1     1     2     0   511  3.925342152E+01 -1.558478391E+01  5.019189869E+01  6.559765380E+01  3.300000000E-01  0.00000E+00  9.000E+00
      -2     1     1     2     0   502 -1.777320249E+02 -2.334723975E+01 -1.860273250E+01  1.802219100E+02  3.300000000E-01  0.00000E+00  9.000E+00
      21     1     1     2   511   501  8.540279239E+01  2.236742342E+00 -1.838900201E+02  2.027663173E+02  8.946258087E-06  0.00000E+00  9.000E+00
</event>
<event>
      8  10001  1.17239E-02  2.11985E+02 -1.00000E+00  1.12632E-01
       4    -1     0     0   501     0  0.000000000E+00  0.000000000E+00  1.679077553E+02  1.679077553E+02  0.000000000E+00  0.00000E+00  9.000E+00
       1    -1     0     0   502     0  0.000000000E+00  0.000000000E+00 -3.821902487E+02  3.821902487E+02  0.000000000E+00  0.00000E+00  9.000E+00
      23     2     1     2     0     0 -1.054247196E+02  5.976967086E+01  7.840098080E+01  1.707300506E+02  9.118800000E+01  0.00000E+00  9.000E+00
     -13     1     3     3     0     0 -6.196079022E+01  8.162033357E+01  4.632087575E+01  1.124573389E+02  1.057000000E-01  0.00000E+00  9.000E+00
      13     1     3     3     0     0 -4.346392935E+01 -2.185066271E+01  3.208010505E+01  5.827271169E+01  1.057000000E-01  0.00000E+00  9.000E+00
       3     1     1     2   511     0 -5.795900292E+00 -4.408375353E+00  3.123159305E+01  3.207317630E+01  5.000000000E-01  0.00000E+00  9.000E+00
       2     1     1     2   502     0  5.373388663E+01 -3.362548953E+01 -1.787040325E+02  1.896134074E+02  3.300000000E-01  0.00000E+00  9.000E+00
      21     1     1     2   501   511  5.748673323E+01 -2.173580598E+01 -1.452110347E+02  1.576813697E+02  7.629394531E-06  0.00000E+00  9.000E+00
</event>
<event>
      8  10001  1.10215E-02  1.24883E+02 -1.00000E+00  1.21862E-01
      -4    -1     0     0     0   501  0.000000000E+00  0.000000000E+00  7.017050812E+01  7.017050812E+01  0.000000000E+00  0.00000E+00  9.000E+00
       2    -1     0     0   502     0  0.000000000E+00  0.000000000E+00 -5.278605572E+02  5.278605572E+02  0.000000000E+00  0.00000E+00  9.000E+00
      23     2     1     2     0     0 -5.939929572E+01 -5.209502700E+00 -7.277933125E+01  1.310247978E+02  9.118800000E+01  0.00000E+00  9.000E+00
     -13     1     3     3     0     0 -9.303947436E+00  2.051337767E+01  1.476465998E+01  2.693266526E+01  1.057000000E-01  0.00000E+00  9.000E+00
      13     1     3     3     0     0 -5.009534828E+01 -2.572288037E+01 -8.754399123E+01  1.040921326E+02  1.057000000E-01  0.00000E+00  9.000E+00
      -3     1     1     2     0   511 -1.411135830E+01  9.439014739E+01 -1.374120421E+02  1.673049601E+02  5.000000000E-01  0.00000E+00  9.000E+00
       1     1     1     2   502     0  7.173683532E+01 -5.125895975E+01 -5.594128013E+01  1.044183424E+02  3.300000000E-01  0.00000E+00  9.000E+00
      21     1     1     2   511   501  1.773818691E+00 -3.792168494E+01 -1.915573956E+02  1.952829650E+02  0.000000000E+00  0.00000E+00  9.000E+00
</event>
<event>
      8  10001  1.57868E-02  5.48783E+02 -1.00000E+00  9.91838E-02
      -2    -1     0     0     0   501  0.000000000E+00  0.000000000E+00  9.615854819E+01  9.615854819E+01  0.000000000E+00  0.00000E+00  9.000E+00
       2    -1     0     0   502     0  0.000000000E+00  0.000000000E+00 -1.016984199E+03  1.016984199E+03  0.000000000E+00  0.00000E+00  9.000E+00
      23     2     1     2     0     0  5.834901926E+01  1.814364821E+01 -4.020599889E+01  1.168998448E+02  9.118800000E+01  0.00000E+00  9.000E+00
     -13     1     3     3     0     0  3.707266310E+01 -1.699514481E+01  1.887724448E+01  4.493972439E+01  1.057000000E-01  0.00000E+00  9.000E+00
      13     1     3     3     0     0  2.127635616E+01  3.513879302E+01 -5.908324337E+01  7.196012039E+01  1.057000000E-01  0.00000E+00  9.000E+00
      -1     1     1     2     0   511  1.120107068E+02 -7.004132838E+00 -4.934646085E+01  1.225995041E+02  3.300000000E-01  0.00000E+00  9.000E+00
       1     1     1     2   502     0 -2.633709825E+01  6.171063595E+00  2.664722140E+00  2.718334810E+01  3.300000000E-01  0.00000E+00  9.000E+00
      21     1     1     2   511   501 -1.440226278E+02 -1.731057897E+01 -8.339379132E+02  8.464600501E+02  1.525878906E-05  0.00000E+00  9.000E+00
</event>
<event>
      8  10001  4.88975E-02  2.06322E+01 -1.00000E+00  1.69614E-01
      -4    -1     0     0     0   501  0.000000000E+00  0.000000000E+00  1.524329082E+01  1.524329082E+01  0.000000000E+00  0.00000E+00  9.000E+00
       4    -1     0     0   502     0  0.000000000E+00  0.000000000E+00 -4.865840212E+02  4.865840212E+02  0.000000000E+00  0.00000E+00  9.000E+00
      23     2     1     2     0     0 -6.897233164E+00  2.529595248E+01 -1.489093002E+02  1.765692160E+02  9.118800000E+01  0.00000E+00  9.000E+00
     -13     1     3     3     0     0  3.864562298E+01  1.214163257E+01 -3.631673563E+01  5.440422664E+01  1.057000000E-01  0.00000E+00  9.000E+00
      13     1     3     3     0     0 -4.554285614E+01  1.315431990E+01 -1.125925645E+02  1.221649894E+02  1.057000000E-01  0.00000E+00  9.000E+00
      -4     1     1     2     0   501  6.056863136E+00 -1.488884199E+01 -2.762867376E+02  2.767579712E+02  1.500000000E+00  0.00000E+00  9.000E+00
       4     1     1     2   511     0  2.653442293E+00  1.056018115E+00 -7.897583152E+00  8.530987628E+00  1.500000000E+00  0.00000E+00  9.000E+00
      21     1     1     2   502   511 -1.813072265E+00 -1.146312860E+01 -3.824710948E+01  3.996913724E+01  6.743495762E-07  0.00000E+00  9.000E+00
</event>
<event>
      8  10001  1.06130E-02  5.57244E+02 -1.00000E+00  9.89941E-02
       2    -1     0     0   501     0  0.000000000E+00  0.000000000E+00  1.276105205E+02  1.276105205E+02  0.000000000E+00  0.00000E+00  9.000E+00
       2    -1     0     0   502     0  0.000000000E+00  0.000000000E+00 -2.642127084E+03  2.642127084E+03  0.000000000E+00  0.00000E+00  9.000E+00
      23     2     1     2     0     0 -1.286810304E+02  2.645873159E+01 -9.142338087E+01  1.842073777E+02  9.118800000E+01  0.00000E+00  9.000E+00
     -13     1     3     3     0     0 -1.307553572E+02  1.088077283E+01 -1.011980708E+02  1.656997747E+02  1.057000000E-01  0.00000E+00  9.000E+00
      13     1     3     3     0     0  2.074326763E+00  1.557795876E+01  9.774689888E+00  1.850760292E+01  1.057000000E-01  0.00000E+00  9.000E+00
       2     1     1     2   501     0 -1.763677942E+01  1.042899267E+02 -1.452080939E+02  1.796467207E+02  3.300000000E-01  0.00000E+00  9.000E+00
       2     1     1     2   512     0  1.081067171E+02 -7.290661121E+01 -2.320728655E+03  2.324388959E+03  3.300000000E-01  0.00000E+00  9.000E+00
      21     1     1     2   502   512  3.821109275E+01 -5.784204705E+01  4.284356608E+01  8.149454688E+01  2.047625594E-05  0.00000E+00  9.000E+00
</event>
<event>
      8  10001  1.09443E-02  2.58314E+02 -1.00000E+00  1.09540E-01
       2    -1     0     0   501     0  0.000000000E+00  0.000000000E+00  1.043995218E+02  1.043995218E+02  0.000000000E+00  0.00000E+00  9.000E+00
       3    -1     0     0   502     0  0.000000000E+00  0.000000000E+00 -9.860400849E+02  9.860400849E+02  0.000000000E+00  0.00000E+00  9.000E+00
      23     2     1     2     0     0 -1.290496618E+02  8.951793125E+01 -5.536918777E+02  5.827153868E+02  9.118800000E+01  0.00000E+00  9.000E+00
     -13     1     3     3     0     0 -7.193822406E+00  4.889991662E+01 -1.059203029E+02  1.168848779E+02  1.057000000E-01  0.00000E+00  9.000E+00
      13     1     3     3     0     0 -1.218558394E+02  4.061801463E+01 -4.477715747E+02  4.658305089E+02  1.057000000E-01  0.00000E+00  9.000E+00
       1     1     1     2   501     0  1.390969142E+02 -6.394348107E+01 -1.056637634E+02  1.860152147E+02  3.300000000E-01  0.00000E+00  9.000E+00
       4     1     1     2   511     0 -3.237016012E+01 -8.766452922E+01 -2.364265634E+02  2.542295553E+02  1.500000000E+00  0.00000E+00  9.000E+00
      21     1     1     2   502   511  2.232290774E+01  6.209007904E+01  1.414164145E+01  6.747944982E+01  1.227334755E-06  0.00000E+00  9.000E+00
</event>
<event>
      8  10001  1.35501E-02  1.12910E+02 -1.00000E+00  1.23798E-01
       1    -1     0     0   501     0  0.000000000E+00  0.000000000E+00  2.488243695E+02  2.488243695E+02  0.000000000E+00  0.00000E+00  9.000E+00
       2    -1     0     0   502     0  0.000000000E+00  0.000000000E+00 -1.797480186E+02  1.797480186E+02  0.000000000E+00  0.00000E+00  9.000E+00
      23     2     1     2     0     0 -1.711413572E+01  9.618345113E+00  2.048901089E+02  2.251235533E+02  9.118800000E+01  0.00000E+00  9.000E+00
     -13     1     3     3     0     0 -3.364547291E+00 -2.865914421E+01  1.833989360E+01  3.419107479E+01  1.057000000E-01  0.00000E+00  9.000E+00
      13     1     3     3     0     0 -1.374958843E+01  3.827748932E+01  1.865502153E+02  1.909324785E+02  1.057000000E-01  0.00000E+00  9.000E+00
       2     1     1     2   512     0 -1.818287051E+01  8.974283410E+00  2.729002947E+01  3.400013458E+01  3.300000000E-01  0.00000E+00  9.000E+00
       1     1     1     2   502     0  3.035834088E+01 -2.159823538E+01 -1.123565675E+02  1.183732225E+02  3.300000000E-01  0.00000E+00  9.000E+00
      21     1     1     2   501   512  4.938665351E+00  3.005606860E+00 -5.074722002E+01  5.107547776E+01  1.507891493E-06  0.00000E+00  9.000E+00
</event>
<event>
      8  10001  1.51466E-02  1.42552E+02 -1.00000E+00  1.19412E-01
      -2    -1     0     0     0   501  0.000000000E+00  0.000000000E+00  1.615350525E+01  1.615350525E+01  0.000000000E+00  0.00000E+00  9.000E+00
       2    -1     0     0   502     0  0.000000000E+00  0.000000000E+00 -2.003177510E+03  2.003177510E+03  0.000000000E+00  0.00000E+00  9.000E+00
      23     2     1     2     0     0  1.073363093E+02 -1.677594316E+01 -1.260728976E+03  1.268682512E+03  9.118800000E+01  0.00000E+00  9.000E+00
     -13     1     3     3     0     0  8.705534769E+01 -1.708600696E+00 -4.993601801E+02  5.068946178E+02  1.057000000E-01  0.00000E+00  9.000E+00
      13     1     3     3     0     0  2.028096163E+01 -1.506734247E+01 -7.613687954E+02  7.617878944E+02  1.057000000E-01  0.00000E+00  9.000E+00
      -2     1     1     2     0   501 -1.029137389E+02  1.450978024E+00 -5.228061596E+02  5.328411888E+02  3.300000000E-01  0.00000E+00  9.000E+00
       2     1     1     2   511     0  1.473204697E+01  9.095349553E+00 -1.952966843E+02  1.960629042E+02  3.300000000E-01  0.00000E+00  9.000E+00
      21     1     1     2   502   511 -1.915461737E+01  6.229615584E+00 -8.192185409E+00  2.174441029E+01  2.351174703E-06  0.00000E+00  9.000E+00
</event>
<event>
      8  10001  1.33620E-02  6.83555E+01 -1.00000E+00  1.34461E-01
       2    -1     0     0   501     0  0.000000000E+00  0.000000000E+00  1.720051148E+02  1.720051148E+02  0.000000000E+00  0.00000E+00  9.000E+00
      -4    -1     0     0     0   502  0.000000000E+00  0.000000000E+00 -4.048663473E+02  4.048663473E+02  0.000000000E+00  0.00000E+00  9.000E+00
      23     2     1     2     0     0  1.963374347E+01 -6.153266556E+01 -3.767109622E+02  3.929353041E+02  9.118800000E+01  0.00000E+00  9.000E+00
     -13     1     3     3     0     0  2.101754518E-01 -3.705900838E+01 -3.496272628E+02  3.515859046E+02  1.057000000E-01  0.00000E+00  9.000E+00
      13     1     3     3     0     0  1.942356802E+01 -2.447365718E+01 -2.708369944E+01  4.134939949E+01  1.057000000E-01  0.00000E+00  9.000E+00
       2     1     1     2   501     0 -3.107762489E+01  3.002356161E+01  1.065693678E+02  1.149972699E+02  3.300000000E-01  0.00000E+00  9.000E+00
      -4     1     1     2     0   512  4.647932120E+00  2.769661560E+01 -2.656320658E+00  2.824910314E+01  1.500000000E+00  0.00000E+00  9.000E+00
      21     1     1     2   512   502  6.795949299E+00  3.812488344E+00  3.993668257E+01  4.068978507E+01  1.066240300E-06  0.00000E+00  9.000E+00
</event>
<event>
      8  10001  1.06863E-02  4.22426E+02 -1.00000E+00  1.02547E-01
       2    -1     0     0   501     0  0.000000000E+00  0.000000000E+00  1.067863960E+03  1.067863960E+03  0.000000000E+00  0.00000E+00  9.000E+00
       3    -1     0     0   502     0  0.000000000E+00  0.000000000E+00 -2.930341899E+02  2.930341899E+02  0.000000000E+00  0.00000E+00  9.000E+00
      23     2     1     2     0     0  3.691294145E+02  1.152523319E+02  3.736307229E+02  5.453941631E+02  9.118800000E+01  0.00000E+00  9.000E+00
     -13     1     3     3     0     0  1.211340186E+02  7.582838899E+01  1.700564518E+02  2.221319496E+02  1.057000000E-01  0.00000E+00  9.000E+00
      13     1     3     3     0     0  2.479953958E+02  3.942394291E+01  2.035742711E+02  3.232622135E+02  1.057000000E-01  0.00000E+00  9.000E+00
       1     1     1     2   511     0  7.906196343E+00  1.208446678E+00  7.869583865E+00  1.122530776E+01  3.300000000E-01  0.00000E+00  9.000E+00
       4     1     1     2   502     0 -3.963590856E+02 -8.479536914E+00  5.087921439E+02  6.450148239E+02  1.500000000E+00  0.00000E+00  9.000E+00
      21     1     1     2   501   511  1.932347480E+01 -1.079812417E+02 -1.154626802E+02  1.592638557E+02  6.607249480E-06  0.00000E+00  9.000E+00
</event>
<event>
      8  10001  1.10378E-02  9.28137E+01 -1.00000E+00  1.27750E-01
       2    -1     0     0   501     0  0.000000000E+00  0.000000000E+00  1.255777815E+02  1.255777815E+02  0.000000000E+00  0.00000E+00  9.000E+00
      -2    -1     0     0     0   502  0.000000000E+00  0.000000000E+00 -2.495447510E+02  2.495447510E+02  0.000000000E+00  0.00000E+00  9.000E+00
      23     2     1     2     0     0  1.382088757E+01 -9.430683362E+01 -1.044617795E+02  1.682626237E+02  9.118800000E+01  0.00000E+00  9.000E+00
     -13     1     3     3     0     0 -2.274770435E+01 -8.622083143E+01 -5.019905552E+01  1.023300844E+02  1.057000000E-01  0.00000E+00  9.000E+00
      13     1     3     3     0     0  3.656859192E+01 -8.086002188E+00 -5.426272399E+01  6.593253927E+01  1.057000000E-01  0.00000E+00  9.000E+00
       1     1     1     2   501     0  3.092478036E+01  7.443282368E+01  2.385133597E+01  8.405701879E+01  3.300000000E-01  0.00000E+00  9.000E+00
      -1     1     1     2     0   511 -3.378258454E+01  1.418133577E+01 -7.791654925E+01  8.610151479E+01  3.300000000E-01  0.00000E+00  9.000E+00
      21     1     1     2   511   502 -1.096308339E+01  5.692674167E+00  3.456002333E+01  3.670137530E+01  8.259061849E-07  0.00000E+00  9.000E+00
</event>
<event>
      8  10001  1.32290E-02  1.01096E+02 -1.00000E+00  1.25995E-01
      -2    -1     0     0     0   501  0.000000000E+00  0.000000000E+00  2.147178626E+01  2.147178626E+01  0.000000000E+00  0.00000E+00  9.000E+00
       2    -1     0     0   502     0  0.000000000E+00  0.000000000E+00 -6.923971563E+02  6.923971563E+02  0.000000000E+00  0.00000E+00  9.000E+00
      23     2     1     2     0     0 -4.738664428E+00 -1.629422873E+01 -1.732382491E+02  1.965062318E+02  9.118800000E+01  0.00000E+00  9.000E+00
     -13     1     3     3     0     0 -7.241080864E+00 -2.502286079E+01 -3.222664171E+00  2.624830568E+01  1.057000000E-01  0.00000E+00  9.000E+00
      13     1     3     3     0     0  2.502416436E+00  8.728632068E+00 -1.700155849E+02  1.702579261E+02  1.057000000E-01  0.00000E+00  9.000E+00
      -2     1     1     2     0   512  5.444151906E+01  1.531315989E+01 -1.403523670E+02  1.513184314E+02  3.300000000E-01  0.00000E+00  9.000E+00
       2     1     1     2   502     0 -2.242605530E+01 -1.459803539E+01 -4.669015776E+01  5.381552123E+01  3.300000000E-01  0.00000E+00  9.000E+00
      21     1     1     2   512   501 -2.727679934E+01  1.557910423E+01 -3.106445961E+02  3.122287581E+02  3.814697266E-06  0.00000E+00  9.000E+00
</event>
<event>
      8  10001  1.49281E-01  6.13577E+01 -1.00000E+00  1.37006E-01
      -2    -1     0     0     0   501  0.000000000E+00  0.000000000E+00  9.056604870E+01  9.056604870E+01  0.000000000E+00  0.00000E+00  9.000E+00
      21    -1     0     0   511   502  0.000000000E+00  0.000000000E+00 -2.808870144E+02  2.808870144E+02  0.000000000E+00  0.00000E+00  9.000E+00
      23     2     1     2     0     0  4.241444023E+01  3.869537252E+01 -1.208103665E+02  1.618848745E+02  9.118800000E+01  0.00000E+00  9.000E+00
     -13     1     3     3     0     0  3.916669520E+01  4.724466899E+01 -1.330994474E+02  1.465658993E+02  1.057000000E-01  0.00000E+00  9.000E+00
      13     1     3     3     0     0  3.247745028E+00 -8.549296475E+00  1.228908094E+01  1.531897519E+01  1.057000000E-01  0.00000E+00  9.000E+00
      -2     1     1     2     0   501  4.248270558E+00  4.035783495E-02  3.050847170E+01  3.080462914E+01  3.300000000E-01  0.00000E+00  9.000E+00
      -2     1     1     2     0   502  5.199311154E+00 -5.948149873E+00  3.211720228E+01  3.307622871E+01  3.300000000E-01  0.00000E+00  9.000E+00
       2     1     1     2   511     0 -5.186202194E+01 -3.278758048E+01 -1.321362732E+02  1.456873308E+02  3.300000000E-01  0.00000E+00  9.000E+00
</event>
<event>
      8  10001  1.24633E-02  3.22068E+02 -1.00000E+00  1.06287E-01
      -3    -1     0     0     0   501  0.000000000E+00  0.000000000E+00  6.195025783E+01  6.195025783E+01  0.000000000E+00  0.00000E+00  9.000E+00
       1    -1     0     0   502     0  0.000000000E+00  0.000000000E+00 -6.667042950E+02  6.667042950E+02  0.000000000E+00  0.00000E+00  9.000E+00
      23     2     1     2     0     0  3.258068618E+01 -1.167919986E+02 -7.974421317E+01  1.713950493E+02  9.118800000E+01  0.00000E+00  9.000E+00
     -13     1     3     3     0     0 -5.410301878E+00 -6.735040746E+01  3.182411605E+00  6.764235114E+01  1.057000000E-01  0.00000E+00  9.000E+00
      13     1     3     3     0     0  3.799098806E+01 -4.944159115E+01 -8.292662478E+01  1.037526982E+02  1.057000000E-01  0.00000E+00  9.000E+00
      -4     1     1     2     0   511  1.208288088E+00 -1.353611999E+01 -4.846995596E+00  1.450620112E+01  1.500000000E+00  0.00000E+00  9.000E+00
       2     1     1     2   502     0 -2.154813066E+01  3.081708372E+01 -5.320316585E+01  6.515136484E+01  3.300000000E-01  0.00000E+00  9.000E+00
      21     1     1     2   511   501 -1.224084362E+01  9.951103489E+01 -4.669596625E+02  4.776019375E+02  0.000000000E+00  0.00000E+00  9.000E+00
</event>
<event>
      8  10001  1.58672E-02  5.79144E+01 -1.00000E+00  1.38409E-01
      -4    -1     0     0     0   501  0.000000000E+00  0.000000000E+00  1.333676487E+02  1.333676487E+02  0.000000000E+00  0.00000E+00  9.000E+00
       1    -1     0     0   502     0  0.000000000E+00  0.000000000E+00 -1.430300362E+02  1.430300362E+02  0.000000000E+00  0.00000E+00  9.000E+00
      23     2     1     2     0     0 -5.462882857E+00  2.364597068E+01  9.030753771E+01  1.306127013E+02  9.118800000E+01  0.00000E+00  9.000E+00
     -13     1     3     3     0     0 -2.782814409E+01  3.767451710E+01  9.294564754E+01  1.040801586E+02  1.057000000E-01  0.00000E+00  9.000E+00
      13     1     3     3     0     0  2.236526123E+01 -1.402854642E+01 -2.638109832E+00  2.653254267E+01  1.057000000E-01  0.00000E+00  9.000E+00
      -4     1     1     2     0   501  1.778511119E+01  5.639989381E+00 -8.956039907E+01  9.149554493E+01  1.500000000E+00  0.00000E+00  9.000E+00
       1     1     1     2   511     0  7.307996881E+00 -1.843522719E+00 -1.816466321E+01  1.966899296E+01  3.300000000E-01  0.00000E+00  9.000E+00
      21     1     1     2   502   511 -1.963022521E+01 -2.744243734E+01  7.755137061E+00  3.462044569E+01  2.795705652E-07  0.00000E+00  9.000E+00
</event>
<event>
      8  10001  1.47385E-02  4.22542E+01 -1.00000E+00  1.46615E-01
      -2    -1     0     0     0   501  0.000000000E+00  0.000000000E+00  1.556386258E+03  1.556386258E+03  0.000000000E+00  0.00000E+00  9.000E+00
      -2    -1     0     0     0   502  0.000000000E+00  0.000000000E+00 -9.353186980E+00  9.353186980E+00  0.000000000E+00  0.00000E+00  9.000E+00
      23     2     1     2     0     0 -3.553935472E+01  8.924770260E+00  3.307150478E+02  3.450078136E+02  9.118800000E+01  0.00000E+00  9.000E+00
     -13     1     3     3     0     0 -5.818038946E+01 -1.624583830E+01  2.551870811E+02  2.622390941E+02  1.057000000E-01  0.00000E+00  9.000E+00
      13     1     3     3     0     0  2.264103474E+01  2.517060856E+01  7.552796670E+01  8.276871942E+01  1.057000000E-01  0.00000E+00  9.000E+00
      -2     1     1     2     0   512 -1.903512207E+00 -4.724139905E+00  1.629730923E+02  1.630529931E+02  3.300000000E-01  0.00000E+00  9.000E+00
      -2     1     1     2     0   502  4.493723206E+01 -1.581934455E+00  1.045670565E+03  1.046636946E+03  3.300000000E-01  0.00000E+00  9.000E+00
      21     1     1     2   512   501 -7.494365137E+00 -2.618695900E+00  7.674366195E+00  1.104169251E+01  4.216370388E-06  0.00000E+00  9.000E+00
</event>
<event>
      8  10001  1.31342E-02  2.76643E+02 -1.00000E+00  1.08507E-01
       2    -1     0     0   501     0  0.000000000E+00  0.000000000E+00  2.497339923E+02  2.497339923E+02  0.000000000E+00  0.00000E+00  9.000E+00
       1    -1     0     0   502     0  0.000000000E+00  0.000000000E+00 -2.157049246E+02  2.157049246E+02  0.000000000E+00  0.00000E+00  9.000E+00
      23     2     1     2     0     0  7.814022050E+00  5.835103405E+01  1.506476472E+02  1.856767812E+02  9.118800000E+01  0.00000E+00  9.000E+00
     -13     1     3     3     0     0 -2.788928569E+01 -5.655972959E+00  1.671796551E+01  3.300460316E+01  1.057000000E-01  0.00000E+00  9.000E+00
      13     1     3     3     0     0  3.570330774E+01  6.400700701E+01  1.339296817E+02  1.526721780E+02  1.057000000E-01  0.00000E+00  9.000E+00
       1     1     1     2   511     0 -6.427399469E+00  1.956597071E+01  7.053315832E+01  7.347907182E+01  3.300000000E-01  0.00000E+00  9.000E+00
       2     1     1     2   502     0 -1.524594387E+01 -3.902596587E+01 -6.492113271E+01  7.726789235E+01  3.300000000E-01  0.00000E+00  9.000E+00
      21     1     1     2   501   511  1.385932128E+01 -3.889103890E+01 -1.222306050E+02  1.290151716E+02  3.303624740E-06  0.00000E+00  9.000E+00
</event>
<event>
      8  10001  1.69549E-02  3.90017E+01 -1.00000E+00  1.48862E-01
       2    -1     0     0   501     0  0.000000000E+00  0.000000000E+00  7.912427966E+01  7.912427966E+01  0.000000000E+00  0.00000E+00  9.000E+00
      -1    -1     0     0     0   502  0.000000000E+00  0.000000000E+00 -2.013440329E+02  2.013440329E+02  0.000000000E+00  0.00000E+00  9.000E+00
      23     2     1     2     0     0 -7.933947953E+00  7.920896527E+00  4.095583476E+01  1.005898597E+02  9.118800000E+01  0.00000E+00  9.000E+00
     -13     1     3     3     0     0  1.285035499E+01  3.086962292E+01 -1.499307485E+01  3.664517306E+01  1.057000000E-01  0.00000E+00  9.000E+00
      13     1     3     3     0     0 -2.078430295E+01 -2.294872640E+01  5.594890960E+01  6.394468665E+01  1.057000000E-01  0.00000E+00  9.000E+00
       2     1     1     2   511     0 -2.826237041E+01 -2.640454540E+00 -3.122055730E+01  4.219674964E+01  3.300000000E-01  0.00000E+00  9.000E+00
      -1     1     1     2     0   502  2.910462003E+01 -6.357360335E+00 -8.261071858E+01  8.781876031E+01  3.300000000E-01  0.00000E+00  9.000E+00
      21     1     1     2   501   511  7.091698329E+00  1.076918349E+00 -4.934431214E+01  4.986294294E+01  0.000000000E+00  0.00000E+00  9.000E+00
</event>
<event>
      8  10001  1.46341E-02  9.53367E+01 -1.00000E+00  1.27194E-01
      -2    -1     0     0     0   501  0.000000000E+00  0.000000000E+00  4.834822754E+01  4.834822754E+01  0.000000000E+00  0.00000E+00  9.000E+00
       2    -1     0     0   502     0  0.000000000E+00  0.000000000E+00 -4.658055997E+02  4.658055997E+02  0.000000000E+00  0.00000E+00  9.000E+00
      23     2     1     2     0     0  3.445957860E+01 -5.421314303E+01 -6.604576052E+01  1.296295540E+02  9.118800000E+01  0.00000E+00  9.000E+00
     -13     1     3     3     0     0  7.430704449E+00 -1.633878295E+01  2.299086249E+01  2.916782692E+01  1.057000000E-01  0.00000E+00  9.000E+00
      13     1     3     3     0     0  2.702887415E+01 -3.787436008E+01 -8.903662302E+01  1.004617270E+02  1.057000000E-01  0.00000E+00  9.000E+00
      -2     1     1     2     0   511 -9.657673468E+00  1.270222853E+00 -6.484571355E+01  6.557407711E+01  3.300000000E-01  0.00000E+00  9.000E+00
       2     1     1     2   502     0  1.167928250E+01  2.207462941E+01 -2.655885984E+02  2.667603932E+02  3.300000000E-01  0.00000E+00  9.000E+00
      21     1     1     2   511   501 -3.648118763E+01  3.086829077E+01 -2.097729968E+01  5.218980291E+01  1.348699152E-06  0.00000E+00  9.000E+00
</event>
<event>
      8  10001  1.09986E-02  2.26483E+02 -1.00000E+00  1.11578E-01
       2    -1     0     0   501     0  0.000000000E+00  0.000000000E+00  2.651484414E+03  2.651484414E+03  0.000000000E+00  0.00000E+00  9.000E+00
       1    -1     0     0   502     0  0.000000000E+00  0.000000000E+00 -4.524096167E+01  4.524096167E+01  0.000000000E+00  0.00000E+00  9.000E+00
      23     2     1     2     0     0 -1.391871388E+02  5.833956815E+01  2.015166878E+03  2.022866620E+03  9.118800000E+01  0.00000E+00  9.000E+00
     -13     1     3     3     0     0 -1.412653451E+01 -1.059545311E+01  6.522643407E+02  6.525033363E+02  1.057000000E-01  0.00000E+00  9.000E+00
      13     1     3     3     0     0 -1.250606043E+02  6.893502125E+01  1.362902538E+03  1.370363284E+03  1.057000000E-01  0.00000E+00  9.000E+00
       1     1     1     2   511     0  8.159586593E+00  5.284296531E+01  3.436259980E+02  3.477612590E+02  3.300000000E-01  0.00000E+00  9.000E+00
       2     1     1     2   502     0  1.262845159E+02 -3.042540685E+01  1.326734147E+02  1.856766766E+02  3.300000000E-01  0.00000E+00  9.000E+00
      21     1     1     2   501   511  4.743036315E+00 -8.075712661E+01  1.147771613E+02  1.404208199E+02  3.568322551E-06  0.00000E+00  9.000E+00
</event>
<event>
      8  10001  1.27716E-02  2.57037E+02 -1.00000E+00  1.09615E-01
      -2    -1     0     0     0   501  0.000000000E+00  0.000000000E+00  5.745088507E+01  5.745088507E+01  0.000000000E+00  0.00000E+00  9.000E+00
       2    -1     0     0   502     0  0.000000000E+00  0.000000000E+00 -1.738159303E+03  1.738159303E+03  0.000000000E+00  0.00000E+00  9.000E+00
      23     2     1     2     0     0  5.654903797E+01 -1.006708769E+02 -6.717338351E+01  1.617403287E+02  9.118800000E+01  0.00000E+00  9.000E+00
     -13     1     3     3     0     0  6.253283702E+01 -6.042223742E+01 -4.570674132E+00  8.707528188E+01  1.057000000E-01  0.00000E+00  9.000E+00
      13     1     3     3     0     0 -5.983799051E+00 -4.024863945E+01 -6.260270937E+01  7.466504686E+01  1.057000000E-01  0.00000E+00  9.000E+00
      -2     1     1     2     0   511 -8.593969272E+01  3.220242344E+01 -2.230892800E+02  2.412292740E+02  3.300000000E-01  0.00000E+00  9.000E+00
       2     1     1     2   502     0  9.132938382E+00  3.372571787E+01 -4.595563409E+02  4.608828202E+02  3.300000000E-01  0.00000E+00  9.000E+00
      21     1     1     2   511   501  2.025771637E+01  3.474273556E+01 -9.308894136E+02  9.317577653E+02  1.868812365E-05  0.00000E+00  9.000E+00
</event>
<event>
      8  10001  1.69745E-02  9.67560E+01 -1.00000E+00  1.26890E-01
      -2    -1     0     0     0   501  0.000000000E+00  0.000000000E+00  2.699019355E+02  2.699019355E+02  0.000000000E+00  0.00000E+00  9.000E+00
       4    -1     0     0   502     0  0.000000000E+00  0.000000000E+00 -5.902971662E+01  5.902971662E+01  0.000000000E+00  0.00000E+00  9.000E+00
      23     2     1     2     0     0 -2.034440753E+01  4.233637253E+01  1.853176148E+02  2.118115508E+02  9.118800000E+01  0.00000E+00  9.000E+00
     -13     1     3     3     0     0 -4.779219189E+00  6.303062119E+01  7.307775737E+01  9.662334054E+01  1.057000000E-01  0.00000E+00  9.000E+00
      13     1     3     3     0     0 -1.556518834E+01 -2.069424866E+01  1.122398574E+02  1.151882103E+02  1.057000000E-01  0.00000E+00  9.000E+00
      -1     1     1     2     0   511 -6.077784051E+00 -2.192355282E+00  2.975094071E+01  3.044623546E+01  3.300000000E-01  0.00000E+00  9.000E+00
       3     1     1     2   502     0  2.628226755E+01 -5.360266979E+01  1.654200884E+01  6.195072116E+01  5.000000000E-01  0.00000E+00  9.000E+00
      21     1     1     2   511   501  1.399240350E-01  1.345865254E+01 -2.073834551E+01  2.472314465E+01  4.768371582E-07  0.00000E+00  9.000E+00
</event>
<event>
      8  10001  1.07353E-02  1.81147E+02 -1.00000E+00  1.15222E-01
       1    -1     0     0   501     0  0.000000000E+00  0.000000000E+00  1.347108615E+03  1.347108615E+03  0.000000000E+00  0.00000E+00  9.000E+00
       2    -1     0     0   502     0  0.000000000E+00  0.000000000E+00 -6.666172772E+01  6.666172772E+01  0.000000000E+00  0.00000E+00  9.000E+00
      23     2     1     2     0     0 -7.552061364E+01  1.859889802E+02  2.799729710E+02  3.563641111E+02  9.118800000E+01  0.00000E+00  9.000E+00
     -13     1     3     3     0     0 -6.343365580E+01  6.391475529E+01  1.663355118E+02  1.891466053E+02  1.057000000E-01  0.00000E+00  9.000E+00
      13     1     3     3     0     0 -1.208695784E+01  1.220742250E+02  1.136374592E+02  1.672175058E+02  1.057000000E-01  0.00000E+00  9.000E+00
       1     1     1     2   511     0  1.762101693E+01 -3.745528629E+00  3.462090300E+02  3.466775599E+02  3.300000000E-01  0.00000E+00  9.000E+00
       2     1     1     2   502     0  2.045236188E+01 -1.442911599E+02  6.388023240E+02  6.552150456E+02  3.300000000E-01  0.00000E+00  9.000E+00
      21     1     1     2   501   511  3.744723483E+01 -3.795229174E+01  1.546256225E+01  5.551362604E+01  1.800020799E-06  0.00000E+00  9.000E+00
</event>
<event>
      8  10001  1.10845E-02  3.19634E+02 -1.00000E+00  1.06395E-01
      -1    -1     0     0     0   501  0.000000000E+00  0.000000000E+00  1.919051310E+02  1.919051310E+02  0.000000000E+00  0.00000E+00  9.000E+00
      -2    -1     0     0     0   502  0.000000000E+00  0.000000000E+00 -4.155592491E+02  4.155592491E+02  0.000000000E+00  0.00000E+00  9.000E+00
      23     2     1     2     0     0 -1.535684727E+02  7.888328546E+01 -1.151187936E+01  1.955853349E+02  9.118800000E+01  0.00000E+00  9.000E+00
     -13     1     3     3     0     0 -6.242390944E+01  6.474604027E+01 -4.087381135E+01  9.879004923E+01  1.057000000E-01  0.00000E+00  9.000E+00
      13     1     3     3     0     0 -9.114456322E+01  1.413724519E+01  2.936193199E+01  9.679528568E+01  1.057000000E-01  0.00000E+00  9.000E+00
      -2     1     1     2     0   511 -2.572979118E+01  1.270185751E+01 -1.103488690E+01  3.074470633E+01  3.300000000E-01  0.00000E+00  9.000E+00
      -1     1     1     2     0   502  1.045396990E+02 -3.781728826E+01  4.379951735E+01  1.194872486E+02  3.300000000E-01  0.00000E+00  9.000E+00
      21     1     1     2   511   501  7.475856485E+01 -5.376785472E+01 -2.449068692E+02  2.616470902E+02  4.672030912E-06  0.00000E+00  9.000E+00
</event>
<event>
      8  10001  1.11201E-02  1.33439E+02 -1.00000E+00  1.20622E-01
      -2    -1     0     0     0   501  0.000000000E+00  0.000000000E+00  5.501804560E+01  5.501804560E+01  0.000000000E+00  0.00000E+00  9.000E+00
       2    -1     0     0   502     0  0.000000000E+00  0.000000000E+00 -1.489580614E+03  1.489580614E+03  0.000000000E+00  0.00000E+00  9.000E+00
      23     2     1     2     0     0  9.507886709E+01  1.164941783E+02 -1.189792728E+02  2.123257009E+02  9.118800000E+01  0.00000E+00  9.000E+00
     -13     1     3     3     0     0  4.251569973E+01  1.145973153E+02 -7.236661663E+01  1.420460058E+02  1.057000000E-01  0.00000E+00  9.000E+00
      13     1     3     3     0     0  5.256316735E+01  1.896863079E+00 -4.661265621E+01  7.027969510E+01  1.057000000E-01  0.00000E+00  9.000E+00
      -2     1     1     2     0   501 -6.475588820E+01  1.189159322E+01 -5.702736704E+02  5.740617590E+02  3.300000000E-01  0.00000E+00  9.000E+00
       2     1     1     2   511     0  1.943270303E+00 -2.286843174E+00 -9.263463882E+01  9.268382362E+01  3.300000000E-01  0.00000E+00  9.000E+00
      21     1     1     2   502   511 -3.226624919E+01 -1.260989284E+02 -6.526749867E+02  6.655273765E+02  1.078959322E-05  0.00000E+00  9.000E+00
</event>
<event>
      8  10001  1.11043E-02  3.14434E+02 -1.00000E+00  1.06631E-01
       1    -1     0     0   501     0  0.000000000E+00  0.000000000E+00  8.650236222E+02  8.650236222E+02  0.000000000E+00  0.00000E+00  9.000E+00
       2    -1     0     0   502     0  0.000000000E+00  0.000000000E+00 -7.432856773E+01  7.432856773E+01  0.000000000E+00  0.00000E+00  9.000E+00
      23     2     1     2     0     0 -3.047525037E+01 -9.125046137E+01  6.032097085E+02  6.176022922E+02  9.118800000E+01  0.00000E+00  9.000E+00
     -13     1     3     3     0     0  4.789922705E+00 -2.093090373E+00  2.899784750E+02  2.900256050E+02  1.057000000E-01  0.00000E+00  9.000E+00
      13     1     3     3     0     0 -3.526517308E+01 -8.915737100E+01  3.132312335E+02  3.275766873E+02  1.057000000E-01  0.00000E+00  9.000E+00
       2     1     1     2   512     0 -8.398012962E+00  1.804655279E+01  1.016297974E+02  1.035612346E+02  3.300000000E-01  0.00000E+00  9.000E+00
       1     1     1     2   502     0  7.991359759E+01  5.381151725E+01  1.252974788E+02  1.580551472E+02  3.300000000E-01  0.00000E+00  9.000E+00
      21     1     1     2   501   512 -4.104033425E+01  1.939239134E+01 -3.944193021E+01  6.013351591E+01  2.236564522E-06  0.00000E+00  9.000E+00
</event>
<event>
      8  10001  1.06485E-02  6.47509E+02 -1.00000E+00  9.71712E-02
       2    -1     0     0   501     0  0.000000000E+00  0.000000000E+00  2.886078353E+03  2.886078353E+03  0.000000000E+00  0.00000E+00  9.000E+00
      -4    -1     0     0     0   502  0.000000000E+00  0.000000000E+00 -1.516578445E+02  1.516578445E+02  0.000000000E+00  0.00000E+00  9.000E+00
      23     2     1     2     0     0 -3.827294184E+02 -2.298036242E+02  1.823115676E+03  1.879190659E+03  9.118800000E+01  0.00000E+00  9.000E+00
     -13     1     3     3     0     0 -3.619580989E+02 -2.211786455E+02  1.611864319E+03  1.666745408E+03  1.057000000E-01  0.00000E+00  9.000E+00
      13     1     3     3     0     0 -2.077131945E+01 -8.624978703E+00  2.112513571E+02  2.124452518E+02  1.057000000E-01  0.00000E+00  9.000E+00
       1     1     1     2   501     0 -1.171789215E+02  3.592737488E+01  5.921240753E+01  1.361172069E+02  3.300000000E-01  0.00000E+00  9.000E+00
      -3     1     1     2     0   511  9.020539604E+00 -1.149107804E+01 -3.345874204E+00  1.499532872E+01  5.000000000E-01  0.00000E+00  9.000E+00
      21     1     1     2   511   502  4.908878003E+02  2.053673273E+02  8.554382989E+02  1.007433003E+03  1.525878906E-05  0.00000E+00  9.000E+00
</event>
<event>
      8  10001  3.14449E-02  7.81753E+01 -1.00000E+00  1.31429E-01
      -2    -1     0     0     0   501  0.000000000E+00  0.000000000E+00  1.388556580E+02  1.388556580E+02  0.000000000E+00  0.00000E+00  9.000E+00
       4    -1     0     0   502     0  0.000000000E+00  0.000000000E+00 -2.741125006E+02  2.741125006E+02  0.000000000E+00  0.00000E+00  9.000E+00
      23     2     1     2     0     0 -3.569865683E+01  6.692130162E+01  8.174796356E+01  1.440515033E+02  9.118800000E+01  0.00000E+00  9.000E+00
     -13     1     3     3     0     0 -2.906819381E+01  7.868300219E+01  2.769034966E+01  8.833312721E+01  1.057000000E-01  0.00000E+00  9.000E+00
      13     1     3     3     0     0 -6.630463020E+00 -1.176170057E+01  5.405761390E+01  5.571837609E+01  1.057000000E-01  0.00000E+00  9.000E+00
      -1     1     1     2     0   512  5.487179753E-01  4.811906303E+00 -7.824302734E+00  9.207830741E+00  3.300000000E-01  0.00000E+00  9.000E+00
       3     1     1     2   502     0  3.776948522E+01 -7.851809827E+01 -5.019194858E+01  1.005540028E+02  5.000000000E-01  0.00000E+00  9.000E+00
      21     1     1     2   512   501 -2.619546368E+00  6.784890348E+00 -1.589885548E+02  1.591548218E+02  1.907348633E-06  0.00000E+00  9.000E+00
</event>
<event>
      8  10001  2.17194E-02  9.83311E+01 -1.00000E+00  1.26559E-01
       2    -1     0     0   501     0  0.000000000E+00  0.000000000E+00  2.447713778E+02  2.447713778E+02  0.000000000E+00  0.00000E+00  9.000E+00
       1    -1     0     0   502     0  0.000000000E+00  0.000000000E+00 -5.386285968E+02  5.386285968E+02  0.000000000E+00  0.00000E+00  9.000E+00
      23     2     1     2     0     0  6.263301206E+01 -1.972910364E+02 -3.639809174E+02  4.285370542E+02  9.118800000E+01  0.00000E+00  9.000E+00
     -13     1     3     3     0     0  6.644894845E+01 -6.234282681E+01 -1.519905608E+02  1.772095724E+02  1.057000000E-01  0.00000E+00  9.000E+00
      13     1     3     3     0     0 -3.815936394E+00 -1.349482096E+02 -2.119903565E+02  2.513274817E+02  1.057000000E-01  0.00000E+00  9.000E+00
       1     1     1     2   501     0 -6.856335986E+01  1.834722717E+02 -7.127740940E+01  2.084312520E+02  3.300000000E-01  0.00000E+00  9.000E+00
       2     1     1     2   511     0  3.629901486E+00  1.173902603E+01  1.263287888E+01  1.762610126E+01  3.300000000E-01  0.00000E+00  9.000E+00
      21     1     1     2   502   511  2.300446315E+00  2.079738636E+00  1.287682289E+02  1.288055672E+02  3.814697266E-06  0.00000E+00  9.000E+00
</event>
<event>
      8  10001  1.08993E-02  9.46986E+01 -1.00000E+00  1.27332E-01
       2    -1     0     0   501     0  0.000000000E+00  0.000000000E+00  4.845134104E+01  4.845134104E+01  0.000000000E+00  0.00000E+00  9.000E+00
       2    -1     0     0   502     0  0.000000000E+00  0.000000000E+00 -6.532513749E+02  6.532513749E+02  0.000000000E+00  0.00000E+00  9.000E+00
      23     2     1     2     0     0  1.540505677E+01  8.124024414E+00 -1.058883526E+02  1.408222642E+02  9.118800000E+01  0.00000E+00  9.000E+00
     -13     1     3     3     0     0  5.369513923E+01  1.295148351E+00 -5.647289348E+01  7.793615500E+01  1.057000000E-01  0.00000E+00  9.000E+00
      13     1     3     3     0     0 -3.829008246E+01  6.828876064E+00 -4.941545910E+01  6.288610922E+01  1.057000000E-01  0.00000E+00  9.000E+00
       2     1     1     2   512     0  7.350534684E+00  7.160395113E+01 -1.522902766E+02  1.684446302E+02  3.300000000E-01  0.00000E+00  9.000E+00
       2     1     1     2   502     0 -2.851521611E+01 -8.559540013E+01 -3.630351521E+02  3.740779607E+02  3.300000000E-01  0.00000E+00  9.000E+00
      21     1     1     2   501   512  5.759624657E+00  5.867424587E+00  1.641374751E+01  1.835786084E+01  1.261592536E-06  0.00000E+00  9.000E+00
</event>
<event>
      8  10001  1.05563E-02  4.94413E+02 -1.00000E+00  1.00497E-01
       1    -1     0     0   501     0  0.000000000E+00  0.000000000E+00  6.961135656E+02  6.961135656E+02  0.000000000E+00  0.00000E+00  9.000E+00
      -1    -1     0     0     0   502  0.000000000E+00  0.000000000E+00 -2.259790554E+02  2.259790554E+02  0.000000000E+00  0.00000E+00  9.000E+00
      23     2     1     2     0     0 -1.153177921E+01  6.642622248E+01  3.330809503E+01  1.181952008E+02  9.118800000E+01  0.00000E+00  9.000E+00
     -13     1     3     3     0     0 -3.241387705E+01  7.711310169E+01  8.543098968E+00  8.408380100E+01  1.057000000E-01  0.00000E+00  9.000E+00
      13     1     3     3     0     0  2.088209784E+01 -1.068687921E+01  2.476499606E+01  3.411139985E+01  1.057000000E-01  0.00000E+00  9.000E+00
       2     1     1     2   501     0  1.391500766E+02  2.335996927E+01  8.238696819E+01  1.633895756E+02  3.300000000E-01  0.00000E+00  9.000E+00
      -2     1     1     2     0   511 -2.022504573E+02  2.940409655E+01 -5.161263513E+01  2.107933144E+02  3.300000000E-01  0.00000E+00  9.000E+00
      21     1     1     2   511   502  7.463215996E+01 -1.191902883E+02  4.060520820E+02  4.297145302E+02  5.394796609E-06  0.00000E+00  9.000E+00
</event>
<event>
      8  10001  2.42103E-02  2.35693E+01 -1.00000E+00  1.64797E-01
       2    -1     0     0   501     0  0.000000000E+00  0.000000000E+00  8.289743190E+02  8.289743190E+02  0.000000000E+00  0.00000E+00  9.000E+00
      -2    -1     0     0     0   502  0.000000000E+00  0.000000000E+00 -8.110818987E+00  8.110818987E+00  0.000000000E+00  0.00000E+00  9.000E+00
      23     2     1     2     0     0 -2.727584793E+01  2.062796068E+01  3.991494751E+02  4.108589046E+02  9.118800000E+01  0.00000E+00  9.000E+00
     -13     1     3     3     0     0  4.607727414E-01  4.978023836E+01  1.396458817E+02  1.482540653E+02  1.057000000E-01  0.00000E+00  9.000E+00
      13     1     3     3     0     0 -2.773662067E+01 -2.915227769E+01  2.595035934E+02  2.626048392E+02  1.057000000E-01  0.00000E+00  9.000E+00
       2     1     1     2   512     0  2.009600562E+01 -6.989955380E+00  1.788214726E+02  1.800831388E+02  3.300000000E-01  0.00000E+00  9.000E+00
      -2     1     1     2     0   502  8.285967110E+00 -1.568958174E+01  2.431512726E+02  2.437980117E+02  3.300000000E-01  0.00000E+00  9.000E+00
      21     1     1     2   501   512 -1.106124804E+00  2.051576447E+00 -2.587202616E-01  2.345082978E+00  1.391609104E-06  0.00000E+00  9.000E+00
</event>
<event>
      8  10001  1.13996E-01  2.38270E+01 -1.00000E+00  1.64415E-01
       1    -1     0     0   501     0  0.000000000E+00  0.000000000E+00  4.245617701E+02  4.245617701E+02  0.000000000E+00  0.00000E+00  9.000E+00
       1    -1     0     0   502     0  0.000000000E+00  0.000000000E+00 -1.151234708E+02  1.151234708E+02  0.000000000E+00  0.00000E+00  9.000E+00
      23     2     1     2     0     0  9.266396862E+00  2.887374461E-01 -8.923172229E+01  1.279199011E+02  9.118800000E+01  0.00000E+00  9.000E+00
     -13     1     3     3     0     0 -3.574484394E+01 -2.064136561E+01 -4.866437288E+01  6.381216344E+01  1.057000000E-01  0.00000E+00  9.000E+00
      13     1     3     3     0     0  4.501124080E+01  2.093010306E+01 -4.056734942E+01  6.410773763E+01  1.057000000E-01  0.00000E+00  9.000E+00
       1     1     1     2   501     0  2.278432480E+00  1.162505883E+00  3.488924821E+02  3.489020144E+02  3.300000000E-01  0.00000E+00  9.000E+00
       1     1     1     2   511     0 -1.686895472E+01  8.160763657E+00  4.825926125E+01  5.177088848E+01  3.300000000E-01  0.00000E+00  9.000E+00
      21     1     1     2   502   511  5.324125382E+00 -9.612006986E+00  1.518278177E+00  1.109243697E+01  4.410340961E-07  0.00000E+00  9.000E+00
</event>
<event>
      8  10001  5.68570E-02  4.05575E+01 -1.00000E+00  1.47756E-01
       1    -1     0     0   501     0  0.000000000E+00  0.000000000E+00  4.674982626E+02  4.674982626E+02  0.000000000E+00  0.00000E+00  9.000E+00
       4    -1     0     0   502     0  0.000000000E+00  0.000000000E+00 -2.094152962E+01  2.094152962E+01  0.000000000E+00  0.00000E+00  9.000E+00
      23     2     1     2     0     0  1.985995363E+01 -3.093617674E+01  3.204286581E+02  3.351734492E+02  9.118800000E+01  0.00000E+00  9.000E+00
     -13     1     3     3     0     0  1.925823641E+01 -5.136234298E+01  3.041221350E+02  3.090295360E+02  1.057000000E-01  0.00000E+00  9.000E+00
      13     1     3     3     0     0  6.017172166E-01  2.042616624E+01  1.630652309E+01  2.614391322E+01  1.057000000E-01  0.00000E+00  9.000E+00
       1     1     1     2   512     0  6.144899819E+00  5.986043132E+00  8.776531546E+00  1.227717036E+01  3.300000000E-01  0.00000E+00  9.000E+00
       4     1     1     2   502     0 -2.584530040E+01  2.444171722E+01  1.267092326E+02  1.316163239E+02  1.500000000E+00  0.00000E+00  9.000E+00
      21     1     1     2   501   512 -1.595530478E-01  5.084163867E-01 -9.357689278E+00  9.372848714E+00  6.307962682E-07  0.00000E+00  9.000E+00
</event>
<event>
      8  10001  1.30211E-02  9.48402E+01 -1.00000E+00  1.27302E-01
      -2    -1     0     0     0   501  0.000000000E+00  0.000000000E+00  1.535214008E+02  1.535214008E+02  0.000000000E+00  0.00000E+00  9.000E+00
       2    -1     0     0   502     0  0.000000000E+00  0.000000000E+00 -4.257034347E+02  4.257034347E+02  0.000000000E+00  0.00000E+00  9.000E+00
      23     2     1     2     0     0  1.835597292E+02  6.545806325E+01 -2.312175364E+02  3.158413094E+02  9.118800000E+01  0.00000E+00  9.000E+00
     -13     1     3     3     0     0  1.167399171E+01 -1.978534864E+01 -3.038032753E+01  3.808828660E+01  1.057000000E-01  0.00000E+00  9.000E+00
      13     1     3     3     0     0  1.718857375E+02  8.524341189E+01 -2.008372089E+02  2.777530228E+02  1.057000000E-01  0.00000E+00  9.000E+00
      -2     1     1     2     0   501 -2.054982782E+02 -5.669495142E+01 -5.171905753E+01  2.193600457E+02  3.300000000E-01  0.00000E+00  9.000E+00
       2     1     1     2   511     0 -4.715503460E-01 -2.693328021E-01 -1.138131739E+01  1.139904318E+01  3.300000000E-01  0.00000E+00  9.000E+00
      21     1     1     2   502   511  2.241009936E+01 -8.493779026E+00  2.213587749E+01  3.262443728E+01  1.752011592E-06  0.00000E+00  9.000E+00
</event>
<event>
      8  10001  1.10591E-02  1.70424E+02 -1.00000E+00  1.16260E-01
       1    -1     0     0   501     0  0.000000000E+00  0.000000000E+00  2.184086909E+03  2.184086909E+03  0.000000000E+00  0.00000E+00  9.000E+00
       3    -1     0     0   502     0  0.000000000E+00  0.000000000E+00 -7.137913479E+01  7.137913479E+01  0.000000000E+00  0.00000E+00  9.000E+00
      23     2     1     2     0     0  1.432388590E+02  8.040500044E+01  1.912740619E+03  1.921945437E+03  9.118800000E+01  0.00000E+00  9.000E+00
     -13     1     3     3     0     0  1.029273247E+02  4.484175961E+01  1.646997419E+03  1.650819592E+03  1.057000000E-01  0.00000E+00  9.000E+00
      13     1     3     3     0     0  4.031153427E+01  3.556324083E+01  2.657432001E+02  2.711258443E+02  1.057000000E-01  0.00000E+00  9.000E+00
       1     1     1     2   512     0 -1.795584237E+01 -5.630101858E+01  8.166627590E+01  1.008052900E+02  3.300000000E-01  0.00000E+00  9.000E+00
       3     1     1     2   502     0 -1.301083046E+02 -1.561918398E+01  1.502153808E+02  1.993415171E+02  5.000000000E-01  0.00000E+00  9.000E+00
      21     1     1     2   501   512  4.825288009E+00 -8.484797877E+00 -3.191450086E+01  3.337380057E+01  5.519789173E-06  0.00000E+00  9.000E+00
</event>
<event>
      8  10001  1.16932E-02  1.11556E+02 -1.00000E+00  1.24034E-01
      -4    -1     0     0     0   501  0.000000000E+00  0.000000000E+00  6.832412142E+01  6.832412142E+01  0.000000000E+00  0.00000E+00  9.000E+00
       1    -1     0     0   502     0  0.000000000E+00  0.000000000E+00 -2.926510257E+02  2.926510257E+02  0.000000000E+00  0.00000E+00  9.000E+00
      23     2     1     2     0     0  4.034480667E+01 -2.771565080E+01 -7.882465975E+01  1.300939624E+02  9.118800000E+01  0.00000E+00  9.000E+00
     -13     1     3     3     0     0  7.875750860E+00 -1.101983901E+01  2.033107111E+01  2.443006198E+01  1.057000000E-01  0.00000E+00  9.000E+00
      13     1     3     3     0     0  3.246905581E+01 -1.669581179E+01 -9.915573086E+01  1.056639004E+02  1.057000000E-01  0.00000E+00  9.000E+00
      -4     1     1     2     0   511 -7.140339033E+00  1.019333386E+01  2.139655717E+01  2.479820871E+01  1.500000000E+00  0.00000E+00  9.000E+00
       1     1     1     2   502     0  3.766830188E+01 -1.325603563E+01 -8.249781949E+01  9.165491022E+01  3.300000000E-01  0.00000E+00  9.000E+00
      21     1     1     2   511   501 -7.087276951E+01  3.077835257E+01 -8.440098223E+01  1.144280658E+02  3.693564745E-06  0.00000E+00  9.000E+00
</event>
<event>
      8  10001  1.07685E-02  1.69141E+02 -1.00000E+00  1.16390E-01
       1    -1     0     0   501     0  0.000000000E+00  0.000000000E+00  1.482496955E+02  1.482496955E+02  0.000000000E+00  0.00000E+00  9.000E+00
       2    -1     0     0   502     0  0.000000000E+00  0.000000000E+00 -2.730078368E+02  2.730078368E+02  0.000000000E+00  0.00000E+00  9.000E+00
      23     2     1     2     0     0  4.722808222E+01 -2.045706676E+01 -9.888049086E+01  1.440193950E+02  9.118800000E+01  0.00000E+00  9.000E+00
     -13     1     3     3     0     0  4.585999534E+01 -5.208142344E+01 -8.424396944E+01  1.091451850E+02  1.057000000E-01  0.00000E+00  9.000E+00
      13     1     3     3     0     0  1.368086879E+00  3.162435668E+01 -1.463652142E+01  3.487421008E+01  1.057000000E-01  0.00000E+00  9.000E+00
       2     1     1     2   501     0 -7.666522160E+01  4.883410215E+01  5.895045794E+00  9.108889176E+01  3.300000000E-01  0.00000E+00  9.000E+00
       1     1     1     2   511     0  8.528010151E+01 -2.155471249E+01 -7.468598473E+01  1.153924025E+02  3.300000000E-01  0.00000E+00  9.000E+00
      21     1     1     2   502   511 -5.584296212E+01 -6.822322904E+00  4.291328844E+01  7.075684302E+01  2.611744678E-06  0.00000E+00  9.000E+00
</event>
<event>
      8  10001  1.34577E-02  4.15330E+01 -1.00000E+00  1.47092E-01
       2    -1     0     0   501     0  0.000000000E+00  0.000000000E+00  3.595165331E+03  3.595165331E+03  0.000000000E+00  0.00000E+00  9.000E+00
       4    -1     0     0   502     0  0.000000000E+00  0.000000000E+00 -3.171195530E+00  3.171195530E+00  0.000000000E+00  0.00000E+00  9.000E+00
      23     2     1     2     0     0  7.012064972E+01 -3.276978234E+01  2.665553833E+03  2.668235981E+03  9.118800000E+01  0.00000E+00  9.000E+00
     -13     1     3     3     0     0  7.909378234E+01 -1.526585878E+00  2.258976703E+03  2.260361456E+03  1.057000000E-01  0.00000E+00  9.000E+00
      13     1     3     3     0     0 -8.973132621E+00 -3.124319646E+01  4.065771296E+02  4.078745247E+02  1.057000000E-01  0.00000E+00  9.000E+00
       2     1     1     2   501     0 -3.292830184E+01  1.912430116E+01  3.503899761E+02  3.524531971E+02  3.300000000E-01  0.00000E+00  9.000E+00
       4     1     1     2   512     0 -3.313850744E+00  2.554527931E+00  1.633047915E+02  1.633652722E+02  1.500000000E+00  0.00000E+00  9.000E+00
      21     1     1     2   502   512 -3.387849714E+01  1.109095325E+01  4.127455355E+02  4.142820764E+02  7.629394531E-06  0.00000E+00  9.000E+00
</event>
<event>
      8  10001  1.05323E-02  3.35843E+02 -1.00000E+00  1.05691E-01
       2    -1     0     0   501     0  0.000000000E+00  0.000000000E+00  3.471653556E+03  3.471653556E+03  0.000000000E+00  0.00000E+00  9.000E+00
      -2    -1     0     0     0   502  0.000000000E+00  0.000000000E+00 -1.787029967E+02  1.787029967E+02  0.000000000E+00  0.00000E+00  9.000E+00
      23     2     1     2     0     0 -1.822571591E+02  3.319530277E+02  2.238399575E+02  4.492550084E+02  9.118800000E+01  0.00000E+00  9.000E+00
     -13     1     3     3     0     0 -5.254212065E+01  2.928472193E+01  3.142951245E+01  6.786821647E+01  1.057000000E-01  0.00000E+00  9.000E+00
      13     1     3     3     0     0 -1.297150385E+02  3.026683057E+02  1.924104450E+02  3.813867919E+02  1.057000000E-01  0.00000E+00  9.000E+00
       1     1     1     2   501     0 -1.688913553E+01 -4.006566868E+02  1.927156514E+03  1.968436781E+03  3.300000000E-01  0.00000E+00  9.000E+00
      -1     1     1     2     0   511  2.324502718E+02  1.208264552E+02  3.444042031E+02  4.327199154E+02  3.300000000E-01  0.00000E+00  9.000E+00
      21     1     1     2   511   502 -3.330397712E+01 -5.212279614E+01  7.975498844E+02  7.999448474E+02  1.525878906E-05  0.00000E+00  9.000E+00
</event>
<event>
      8  10001  1.28829E-02  2.90401E+01 -1.00000E+00  1.57784E-01
       2    -1     0     0   501     0  0.000000000E+00  0.000000000E+00  1.902981748E+03  1.902981748E+03  0.000000000E+00  0.00000E+00  9.000E+00
      -1    -1     0     0     0   502  0.000000000E+00  0.000000000E+00 -1.223772695E+01  1.223772695E+01  0.000000000E+00  0.00000E+00  9.000E+00
      23     2     1     2     0     0 -1.480885269E+01  4.692807150E+01  1.645883735E+03  1.649142221E+03  9.118800000E+01  0.00000E+00  9.000E+00
     -13     1     3     3     0     0  4.097299831E+00 -2.373443830E+01  2.062951237E+02  2.076964147E+02  1.057000000E-01  0.00000E+00  9.000E+00
      13     1     3     3     0     0 -1.890615252E+01  7.066250980E+01  1.439588611E+03  1.441445807E+03  1.057000000E-01  0.00000E+00  9.000E+00
       2     1     1     2   501     0  3.848663050E+01 -2.684701611E+01  6.587521707E+01  8.088038159E+01  3.300000000E-01  0.00000E+00  9.000E+00
      -1     1     1     2     0   512 -5.933053692E+00 -1.050092992E+01  1.206440673E+01  1.706251637E+01  3.300000000E-01  0.00000E+00  9.000E+00
      21     1     1     2   512   502 -1.774472412E+01 -9.580125476E+00  1.669206621E+02  1.681343554E+02  3.303624740E-06  0.00000E+00  9.000E+00
</event>
<event>
      8  10001  1.18143E-02  5.76219E+02 -1.00000E+00  9.85815E-02
       1    -1     0     0   501     0  0.000000000E+00  0.000000000E+00  1.755816094E+03  1.755816094E+03  0.000000000E+00  0.00000E+00  9.000E+00
       2    -1     0     0   502     0  0.000000000E+00  0.000000000E+00 -2.463140075E+02  2.463140075E+02  0.000000000E+00  0.00000E+00  9.000E+00
      23     2     1     2     0     0 -4.334423262E+01  6.235231554E+01  1.715128653E+03  1.719228920E+03  9.118800000E+01  0.00000E+00  9.000E+00
     -13     1     3     3     0     0 -6.274926822E+01  1.134632698E+01  9.874137748E+02  9.894706583E+02  1.057000000E-01  0.00000E+00  9.000E+00
      13     1     3     3     0     0  1.940503559E+01  5.100598856E+01  7.277148779E+02  7.297582620E+02  1.057000000E-01  0.00000E+00  9.000E+00
       2     1     1     2   511     0  3.720425042E+00 -1.388375601E+01  1.221941582E+01  1.886857881E+01  3.300000000E-01  0.00000E+00  9.000E+00
       1     1     1     2   502     0 -4.025939512E+01  1.628913901E+01 -4.255753918E+01  6.080631535E+01  3.300000000E-01  0.00000E+00  9.000E+00
      21     1     1     2   501   511  7.988320270E+01 -6.475769854E+01 -1.752884428E+02  2.032262871E+02  1.907348633E-06  0.00000E+00  9.000E+00
</event>
<event>
      8  10001  1.05603E-02  5.64117E+02 -1.00000E+00  9.88426E-02
       1    -1     0     0   501     0  0.000000000E+00  0.000000000E+00  6.150404089E+02  6.150404089E+02  0.000000000E+00  0.00000E+00  9.000E+00
       1    -1     0     0   502     0  0.000000000E+00  0.000000000E+00 -8.298511856E+02  8.298511856E+02  0.000000000E+00  0.00000E+00  9.000E+00
      23     2     1     2     0     0  2.047497643E+02 -2.231919286E+02  3.148654234E+02  4.463099698E+02  9.118800000E+01  0.00000E+00  9.000E+00
     -13     1     3     3     0     0  6.433456940E+01 -1.331072725E+02  1.707037736E+02  2.258235424E+02  1.057000000E-01  0.00000E+00  9.000E+00
      13     1     3     3     0     0  1.404151949E+02 -9.008465601E+01  1.441616498E+02  2.204864274E+02  1.057000000E-01  0.00000E+00  9.000E+00
       1     1     1     2   501     0 -2.085450244E+02 -3.987241818E+01 -5.169795552E+02  5.588817463E+02  3.300000000E-01  0.00000E+00  9.000E+00
       1     1     1     2   511     0  1.163008414E+02 -2.069708421E+01 -5.715406144E+01  1.312286198E+02  3.300000000E-01  0.00000E+00  9.000E+00
      21     1     1     2   502   511 -1.125055814E+02  2.837614309E+02  4.445741663E+01  3.084712587E+02  7.907449699E-06  0.00000E+00  9.000E+00
</event>
<event>
      8  10001  1.15496E-02  5.03586E+01 -1.00000E+00  1.41928E-01
       2    -1     0     0   501     0  0.000000000E+00  0.000000000E+00  8.523957902E+01  8.523957902E+01  0.000000000E+00  0.00000E+00  9.000E+00
       1    -1     0     0   502     0  0.000000000E+00  0.000000000E+00 -2.088497174E+03  2.088497174E+03  0.000000000E+00  0.00000E+00  9.000E+00
      23     2     1     2     0     0  2.724737692E+02  2.776132298E+02 -8.750491261E+02  9.619445331E+02  9.118800000E+01  0.00000E+00  9.000E+00
     -13     1     3     3     0     0  2.115923341E+02  1.631223592E+02 -6.394024853E+02  6.929760237E+02  1.057000000E-01  0.00000E+00  9.000E+00
      13     1     3     3     0     0  6.088143509E+01  1.144908705E+02 -2.356466408E+02  2.689685094E+02  1.057000000E-01  0.00000E+00  9.000E+00
       1     1     1     2   512     0  9.543549532E+00  1.542034353E+01 -1.402462679E+01  2.292739385E+01  3.300000000E-01  0.00000E+00  9.000E+00
       2     1     1     2   502     0 -2.716182252E+02 -2.815440510E+02 -1.002776469E+03  1.076384815E+03  3.300000000E-01  0.00000E+00  9.000E+00
      21     1     1     2   501   512 -1.039909353E+01 -1.148952229E+01 -1.114073726E+02  1.124800113E+02  1.907348633E-06  0.00000E+00  9.000E+00
</event>
<event>
      8  10001  2.45471E-02  2.41744E+02 -1.00000E+00  1.10558E-01
       2    -1     0     0   501     0  0.000000000E+00  0.000000000E+00  1.240866555E+02  1.240866555E+02  0.000000000E+00  0.00000E+00  9.000E+00
       1    -1     0     0   502     0  0.000000000E+00  0.000000000E+00 -1.429968385E+03  1.429968385E+03  0.000000000E+00  0.00000E+00  9.000E+00
      23     2     1     2     0     0  2.552696115E+01 -1.801661157E+02 -1.224548285E+03  1.241348142E+03  9.118800000E+01  0.00000E+00  9.000E+00
     -13     1     3     3     0     0 -2.758446570E+01 -2.113079410E+01 -1.654187401E+02  1.690289441E+02  1.057000000E-01  0.00000E+00  9.000E+00
      13     1     3     3     0     0  5.311142685E+01 -1.590353216E+02 -1.059129545E+03  1.072319198E+03  1.057000000E-01  0.00000E+00  9.000E+00
       1     1     1     2   511     0  9.051864692E+00 -2.712251971E+01 -5.579793006E+01  6.269836703E+01  3.300000000E-01  0.00000E+00  9.000E+00
       2     1     1     2   502     0 -3.072155508E+01  1.904317593E+02 -6.770489697E+01  2.044312375E+02  3.300000000E-01  0.00000E+00  9.000E+00
      21     1     1     2   501   511 -3.857270764E+00  1.685687611E+01  4.216938329E+01  4.557729366E+01  1.261592536E-06  0.00000E+00  9.000E+00
</event>
<event>
      8  10001  1.06823E-02  1.15831E+02 -1.00000E+00  1.23301E-01
      -3    -1     0     0     0   501  0.000000000E+00  0.000000000E+00  1.503662531E+02  1.503662531E+02  0.000000000E+00  0.00000E+00  9.000E+00
      -2    -1     0     0     0   502  0.000000000E+00  0.000000000E+00 -1.410925243E+03  1.410925243E+03  0.000000000E+00  0.00000E+00  9.000E+00
      23     2     1     2     0     0 -1.273034470E+02 -3.224630651E+02 -1.027391985E+03  1.088135165E+03  9.118800000E+01  0.00000E+00  9.000E+00
     -13     1     3     3     0     0 -2.216047058E+01 -1.777526380E+01 -3.721718267E+01  4.682068259E+01  1.057000000E-01  0.00000E+00  9.000E+00
      13     1     3     3     0     0 -1.051429764E+02 -3.046878013E+02 -9.901748024E+02  1.041314483E+03  1.057000000E-01  0.00000E+00  9.000E+00
      -4     1     1     2     0   501  7.127419348E+01  2.529634785E+02 -1.282680883E+02  2.924474049E+02  1.500000000E+00  0.00000E+00  9.000E+00
      -1     1     1     2     0   511  6.390459301E+01  5.093436022E+01 -1.268538693E+02  1.508977108E+02  3.300000000E-01  0.00000E+00  9.000E+00
      21     1     1     2   511   502 -7.875339479E+00  1.856522634E+01  2.195495265E+01  2.981121512E+01  1.800020799E-06  0.00000E+00  9.000E+00
</event>
<event>
      8  10001  1.07415E-02  7.14910E+02 -1.00000E+00  9.60057E-02
       2    -1     0     0   501     0  0.000000000E+00  0.000000000E+00  6.898667412E+02  6.898667412E+02  0.000000000E+00  0.00000E+00  9.000E+00
       1    -1     0     0   502     0  0.000000000E+00  0.000000000E+00 -3.231444282E+02  3.231444282E+02  0.000000000E+00  0.00000E+00  9.000E+00
      23     2     1     2     0     0 -1.422436252E+02 -2.787625210E+02 -2.980634631E+01  3.273308138E+02  9.118800000E+01  0.00000E+00  9.000E+00
     -13     1     3     3     0     0 -2.698241035E+01 -1.089343486E+01  1.426131768E+01  3.240545859E+01  1.057000000E-01  0.00000E+00  9.000E+00
      13     1     3     3     0     0 -1.152612149E+02 -2.678690861E+02 -4.406766399E+01  2.949253552E+02  1.057000000E-01  0.00000E+00  9.000E+00
       1     1     1     2   501     0  1.012456271E+02  8.790193575E+00 -9.100913476E+00  1.020337201E+02  3.300000000E-01  0.00000E+00  9.000E+00
       2     1     1     2   512     0 -6.961543182E+01 -2.266747787E+01  2.355700983E+00  7.325149232E+01  3.300000000E-01  0.00000E+00  9.000E+00
      21     1     1     2   502   512  1.106134300E+02  2.926398053E+02  4.032738718E+02  5.103951432E+02  1.789251617E-05  0.00000E+00  9.000E+00
</event>
<event>
      8  10001  1.12742E-02  5.27359E+02 -1.00000E+00  9.96810E-02
       1    -1     0     0   501     0  0.000000000E+00  0.000000000E+00  2.911041703E+02  2.911041703E+02  0.000000000E+00  0.00000E+00  9.000E+00
       2    -1     0     0   502     0  0.000000000E+00  0.000000000E+00 -9.616339854E+02  9.616339854E+02  0.000000000E+00  0.00000E+00  9.000E+00
      23     2     1     2     0     0  1.594836782E+01 -1.508726271E+02 -8.744062680E+02  8.921426304E+02  9.118800000E+01  0.00000E+00  9.000E+00
     -13     1     3     3     0     0  4.891178815E+01 -5.805042459E+01 -3.066980622E+02  3.159524131E+02  1.057000000E-01  0.00000E+00  9.000E+00
      13     1     3     3     0     0 -3.296342033E+01 -9.282220249E+01 -5.677082058E+02  5.761902173E+02  1.057000000E-01  0.00000E+00  9.000E+00
       2     1     1     2   501     0  2.669578119E+01  1.189983591E+02  7.669983927E+01  1.440702899E+02  3.300000000E-01  0.00000E+00  9.000E+00
       1     1     1     2   511     0 -2.471486450E+01  6.738821606E+00 -3.946291759E+01  4.704962284E+01  3.300000000E-01  0.00000E+00  9.000E+00
      21     1     1     2   502   511 -1.792928451E+01  2.513544638E+01  1.666395312E+02  1.694756126E+02  7.864199878E-06  0.00000E+00  9.000E+00
</event>
<event>
      8  10001  1.06299E-02  5.07391E+02 -1.00000E+00  1.00168E-01
       1    -1     0     0   501     0  0.000000000E+00  0.000000000E+00  1.173808948E+02  1.173808948E+02  0.000000000E+00  0.00000E+00  9.000E+00
       2    -1     0     0   502     0  0.000000000E+00  0.000000000E+00 -2.210426745E+03  2.210426745E+03  0.000000000E+00  0.00000E+00  9.000E+00
      23     2     1     2     0     0  1.071080195E+02 -8.721770759E+01 -1.653830723E+01  1.663364762E+02  9.118800000E+01  0.00000E+00  9.000E+00
     -13     1     3     3     0     0 -1.186892889E+01 -3.069857250E+00  1.275786428E+01  1.769377773E+01  1.057000000E-01  0.00000E+00  9.000E+00
      13     1     3     3     0     0  1.189769484E+02 -8.414785034E+01 -2.929617152E+01  1.486426985E+02  1.057000000E-01  0.00000E+00  9.000E+00
       2     1     1     2   512     0  2.065488597E+01  2.002898258E+02 -2.926832911E+02  3.552551990E+02  3.300000000E-01  0.00000E+00  9.000E+00
       1     1     1     2   502     0  4.377972510E+00 -1.227032452E+02 -4.716414804E+02  4.873613115E+02  3.300000000E-01  0.00000E+00  9.000E+00
      21     1     1     2   501   512 -1.321408780E+02  9.631126986E+00 -1.312182771E+03  1.318854653E+03  5.501634637E-05  0.00000E+00  9.000E+00
</event>
<event>
      8  10001  1.07701E-02  2.14825E+02 -1.00000E+00  1.12418E-01
       2    -1     0     0   501     0  0.000000000E+00  0.000000000E+00  2.818664958E+02  2.818664958E+02  0.000000000E+00  0.00000E+00  9.000E+00
       1    -1     0     0   502     0  0.000000000E+00  0.000000000E+00 -4.816632255E+02  4.816632255E+02  0.000000000E+00  0.00000E+00  9.000E+00
      23     2     1     2     0     0  9.475049414E+01 -2.135554651E+02 -2.721692600E+02  3.701012703E+02  9.118800000E+01  0.00000E+00  9.000E+00
     -13     1     3     3     0     0  6.382105306E+01 -8.572740687E+01 -6.617621642E+01  1.257044864E+02  1.057000000E-01  0.00000E+00  9.000E+00
      13     1     3     3     0     0  3.092944108E+01 -1.278280582E+02 -2.059930436E+02  2.443967839E+02  1.057000000E-01  0.00000E+00  9.000E+00
       1     1     1     2   501     0 -4.170694189E+01  2.537869110E+02  3.985741522E+01  2.602613834E+02  3.300000000E-01  0.00000E+00  9.000E+00
       2     1     1     2   511     0  2.344207405E+01 -1.460298102E+01 -2.241818899E+01  3.557333254E+01  3.300000000E-01  0.00000E+00  9.000E+00
      21     1     1     2   502   511 -7.648562630E+01 -2.562846493E+01  5.493330404E+01  9.759373514E+01  1.784161275E-06  0.00000E+00  9.000E+00
</event>
<event>
      8  10001  1.44987E-02  1.16618E+02 -1.00000E+00  1.23170E-01
       2    -1     0     0   501     0  0.000000000E+00  0.000000000E+00  5.426923295E+02  5.426923295E+02  0.000000000E+00  0.00000E+00  9.000E+00
       4    -1     0     0   502     0  0.000000000E+00  0.000000000E+00 -8.366733935E+01  8.366733935E+01  0.000000000E+00  0.00000E+00  9.000E+00
      23     2     1     2     0     0 -1.684471688E+01  1.200759483E+01  3.607714872E+02  3.726918890E+02  9.118800000E+01  0.00000E+00  9.000E+00
     -13     1     3     3     0     0 -6.813757879E+00  4.828821465E+01  2.709215692E+02  2.752756560E+02  1.057000000E-01  0.00000E+00  9.000E+00
      13     1     3     3     0     0 -1.003095900E+01 -3.628061982E+01  8.984991798E+01  9.741623298E+01  1.057000000E-01  0.00000E+00  9.000E+00
       2     1     1     2   512     0  2.655011843E+00 -1.939121032E+01  7.408785667E-01  1.958892357E+01  3.300000000E-01  0.00000E+00  9.000E+00
       4     1     1     2   502     0 -1.549434232E+00  1.712043882E+01 -6.666465039E+01  6.886171493E+01  1.500000000E+00  0.00000E+00  9.000E+00
      21     1     1     2   501   512  1.573913927E+01 -9.736823325E+00  1.641772748E+02  1.652171413E+02  3.814697266E-06  0.00000E+00  9.000E+00
</event>
<event>
      8  10001  1.13345E-02  1.04192E+02 -1.00000E+00  1.25388E-01
      -4    -1     0     0     0   501  0.000000000E+00  0.000000000E+00  1.087565279E+01  1.087565279E+01  0.000000000E+00  0.00000E+00  9.000E+00
       2    -1     0     0   502     0  0.000000000E+00  0.000000000E+00 -4.449083856E+03  4.449083856E+03  0.000000000E+00  0.00000E+00  9.000E+00
      23     2     1     2     0     0  1.094730527E+02  1.016209035E+01 -6.846982879E+02  6.994387851E+02  9.118800000E+01  0.00000E+00  9.000E+00
     -13     1     3     3     0     0  4.677181524E+01  1.460886218E+01 -9.988154419E+01  1.112535644E+02  1.057000000E-01  0.00000E+00  9.000E+00
      13     1     3     3     0     0  6.270123744E+01 -4.446771834E+00 -5.848167437E+02  5.881852207E+02  1.057000000E-01  0.00000E+00  9.000E+00
      -4     1     1     2     0   501 -9.263526984E+01  1.328770314E+00 -2.174052484E+03  2.176026082E+03  1.500000000E+00  0.00000E+00  9.000E+00
       2     1     1     2   511     0  7.674963691E+00 -1.352590222E+01 -1.520918028E+03  1.520997571E+03  3.300000000E-01  0.00000E+00  9.000E+00
      21     1     1     2   502   511 -2.451274653E+01  2.035041556E+00 -5.853940377E+01  6.349707025E+01  1.029349954E-05  0.00000E+00  9.000E+00
</event>
<event>
      8  10001  1.05844E-02  4.69896E+02 -1.00000E+00  1.01150E-01
      -1    -1     0     0     0   501  0.000000000E+00  0.000000000E+00  6.604889633E+02  6.604889633E+02  0.000000000E+00  0.00000E+00  9.000E+00
      -1    -1     0     0     0   502  0.000000000E+00  0.000000000E+00 -2.271582188E+02  2.271582188E+02  0.000000000E+00  0.00000E+00  9.000E+00
      23     2     1     2     0     0  3.603383837E+01 -2.831807477E+01  1.120063157E+02  1.515289311E+02  9.118800000E+01  0.00000E+00  9.000E+00
     -13     1     3     3     0     0 -2.994843184E+01 -1.030802702E+01  2.236022376E+01  3.877053997E+01  1.057000000E-01  0.00000E+00  9.000E+00
      13     1     3     3     0     0  6.598227021E+01 -1.801004775E+01  8.964609197E+01  1.127583912E+02  1.057000000E-01  0.00000E+00  9.000E+00
      -1     1     1     2     0   512  6.494003513E+01  2.850329042E+01  1.149664126E+02  1.350815703E+02  3.300000000E-01  0.00000E+00  9.000E+00
      -1     1     1     2     0   502 -2.124562904E+02 -4.219347116E+01  3.517349957E+02  4.130805980E+02  3.300000000E-01  0.00000E+00  9.000E+00
      21     1     1     2   512   501  1.114824169E+02  4.200825551E+01 -1.453769795E+02  1.879560826E+02  8.529922400E-06  0.00000E+00  9.000E+00
</event>
<event>
      8  10001  1.18014E-02  1.55593E+02 -1.00000E+00  1.17845E-01
      -2    -1     0     0     0   501  0.000000000E+00  0.000000000E+00  2.149242657E+02  2.149242657E+02  0.000000000E+00  0.00000E+00  9.000E+00
      -3    -1     0     0     0   502  0.000000000E+00  0.000000000E+00 -4.453627231E+02  4.453627231E+02  0.000000000E+00  0.00000E+00  9.000E+00
      23     2     1     2     0     0  1.244780451E+02 -3.115892032E+01 -3.656798511E+02  3.981239341E+02  9.118800000E+01  0.00000E+00  9.000E+00
     -13     1     3     3     0     0  5.817869639E+01 -5.271516944E+01 -1.255250808E+02  1.480547429E+02  1.057000000E-01  0.00000E+00  9.000E+00
      13     1     3     3     0     0  6.629934874E+01  2.155624912E+01 -2.401547703E+02  2.500691912E+02  1.057000000E-01  0.00000E+00  9.000E+00
      -1     1     1     2     0   501 -1.021603274E+02  6.032064772E+01  6.197108114E+01  1.338500536E+02  3.300000000E-01  0.00000E+00  9.000E+00
      -4     1     1     2     0   511 -1.070513658E+01 -4.465378237E+01 -6.342935234E+00  4.637933868E+01  1.500000000E+00  0.00000E+00  9.000E+00
      21     1     1     2   511   502 -1.161258114E+01  1.549205497E+01  7.961324786E+01  8.193366245E+01  9.536743164E-07  0.00000E+00  9.000E+00
</event>
<event>
      8  10001  1.31099E-02  5.89879E+01 -1.00000E+00  1.37959E-01
      -3    -1     0     0     0   501  0.000000000E+00  0.000000000E+00  2.898878665E+02  2.898878665E+02  0.000000000E+00  0.00000E+00  9.000E+00
       3    -1     0     0   502     0  0.000000000E+00  0.000000000E+00 -7.104893117E+01  7.104893117E+01  0.000000000E+00  0.00000E+00  9.000E+00
      23     2     1     2     0     0 -3.276419692E+01 -7.035821210E+01  1.424959895E+00  1.197541334E+02  9.118800000E+01  0.00000E+00  9.000E+00
     -13     1     3     3     0     0 -4.153294300E+01  4.183711904E+00 -1.216065644E+01  4.347851811E+01  1.057000000E-01  0.00000E+00  9.000E+00
      13     1     3     3     0     0  8.768746086E+00 -7.454192401E+01  1.358561633E+01  7.627561528E+01  1.057000000E-01  0.00000E+00  9.000E+00
      -4     1     1     2     0   501  2.268022006E+01  4.406728671E+01  1.325018332E+02  1.414754535E+02  1.500000000E+00  0.00000E+00  9.000E+00
       4     1     1     2   512     0 -1.475586612E+01  1.559366731E+01  1.997162580E+01  2.936007293E+01  1.500000000E+00  0.00000E+00  9.000E+00
      21     1     1     2   502   512  2.483984298E+01  1.069725808E+01  6.494051640E+01  7.034713782E+01  9.536743164E-07  0.00000E+00  9.000E+00
</event>
<event>
      8  10001  1.06496E-02  3.48003E+02 -1.00000E+00  1.05191E-01
      -3    -1     0     0     0   501  0.000000000E+00  0.000000000E+00  1.545707300E+02  1.545707300E+02  0.000000000E+00  0.00000E+00  9.000E+00
       1    -1     0     0   502     0  0.000000000E+00  0.000000000E+00 -8.882111336E+02  8.882111336E+02  0.000000000E+00  0.00000E+00  9.000E+00
      23     2     1     2     0     0  3.877964143E+01 -9.308981257E+01  5.585486422E+01  1.469850026E+02  9.118800000E+01  0.00000E+00  9.000E+00
     -13     1     3     3     0     0  2.104998682E+01 -1.575617015E+01  6.206227434E+01  6.740249188E+01  1.057000000E-01  0.00000E+00  9.000E+00
      13     1     3     3     0     0  1.772965461E+01 -7.733364242E+01 -6.207410123E+00  7.958251073E+01  1.057000000E-01  0.00000E+00  9.000E+00
      -4     1     1     2     0   511  2.145490867E+01  4.181906984E+01  6.939084181E+00  4.753470940E+01  1.500000000E+00  0.00000E+00  9.000E+00
       2     1     1     2   502     0 -6.537675992E+01  1.640711311E+02 -4.311286884E+02  4.659028994E+02  3.300000000E-01  0.00000E+00  9.000E+00
      21     1     1     2   511   501  5.142209820E+00 -1.128003884E+02 -3.653056636E+02  3.823592523E+02  1.078959322E-05  0.00000E+00  9.000E+00
</event>
<event>
      8  10001  1.47244E-02  5.22203E+01 -1.00000E+00  1.40997E-01
      -4    -1     0     0     0   501  0.000000000E+00  0.000000000E+00  1.801333184E+02  1.801333184E+02  0.000000000E+00  0.00000E+00  9.000E+00
      -4    -1     0     0     0   502  0.000000000E+00  0.000000000E+00 -1.104924726E+02  1.104924726E+02  0.000000000E+00  0.00000E+00  9.000E+00
      23     2     1     2     0     0  2.831245890E+01  2.930624927E+01  1.284518070E+02  1.627131514E+02  9.118800000E+01  0.00000E+00  9.000E+00
     -13     1     3     3     0     0 -6.672522286E+00  5.517685779E+01  6.179970967E+01  8.311572340E+01  1.057000000E-01  0.00000E+00  9.000E+00
      13     1     3     3     0     0  3.498498118E+01 -2.587060852E+01  6.665209738E+01  7.959742804E+01  1.057000000E-01  0.00000E+00  9.000E+00
      -4     1     1     2     0   501 -2.809470025E+01  1.324019990E+00 -2.670809221E+01  3.881542735E+01  1.500000000E+00  0.00000E+00  9.000E+00
      -4     1     1     2     0   511  7.388507162E+00 -3.184244362E+00 -5.309136399E+01  5.371845475E+01  1.500000000E+00  0.00000E+00  9.000E+00
      21     1     1     2   511   502 -7.606265814E+00 -2.744602490E+01  2.098849493E+01  3.537875749E+01  8.920806376E-07  0.00000E+00  9.000E+00
</event>
<event>
      8  10001  1.10907E-02  3.55856E+02 -1.00000E+00  1.04879E-01
       2    -1     0     0   501     0  0.000000000E+00  0.000000000E+00  2.812029460E+03  2.812029460E+03  0.000000000E+00  0.00000E+00  9.000E+00
      -2    -1     0     0     0   502  0.000000000E+00  0.000000000E+00 -3.730413544E+01  3.730413544E+01  0.000000000E+00  0.00000E+00  9.000E+00
      23     2     1     2     0     0  4.530505527E+01  6.626073033E+00  5.488690269E+02  5.582731526E+02  9.118800000E+01  0.00000E+00  9.000E+00
     -13     1     3     3     0     0  4.065408492E+01  1.919438545E+01  5.407255064E+02  5.425912490E+02  1.057000000E-01  0.00000E+00  9.000E+00
      13     1     3     3     0     0  4.650970346E+00 -1.256831241E+01  8.143520528E+00  1.568190362E+01  1.057000000E-01  0.00000E+00  9.000E+00
       2     1     1     2   512     0 -4.795533205E+01  6.838404748E+01  3.675731059E+02  3.769432171E+02  3.300000000E-01  0.00000E+00  9.000E+00
      -2     1     1     2     0   502 -4.128092291E+01 -7.406442900E+01  1.867330055E+03  1.869254208E+03  3.300000000E-01  0.00000E+00  9.000E+00
      21     1     1     2   501   512  4.393119969E+01 -9.456915075E-01 -9.046862410E+00  4.486301771E+01  8.642467957E-06  0.00000E+00  9.000E+00
</event>
<event>
      8  10001  2.03026E-02  3.40142E+02 -1.00000E+00  1.05512E-01
      -1    -1     0     0     0   501  0.000000000E+00  0.000000000E+00  4.653592958E+02  4.653592958E+02  0.000000000E+00  0.00000E+00  9.000E+00
       4    -1     0     0   502     0  0.000000000E+00  0.000000000E+00 -1.536759790E+02  1.536759790E+02  0.000000000E+00  0.00000E+00  9.000E+00
      23     2     1     2     0     0  5.853243992E+01 -3.927005699E+01  3.754125597E+02  3.927060290E+02  9.118800000E+01  0.00000E+00  9.000E+00
     -13     1     3     3     0     0 -1.411532027E+01 -2.406816339E+01  2.042075073E+02  2.061049150E+02  1.057000000E-01  0.00000E+00  9.000E+00
      13     1     3     3     0     0  7.264776019E+01 -1.520189360E+01  1.712050524E+02  1.866011140E+02  1.057000000E-01  0.00000E+00  9.000E+00
      -1     1     1     2     0   511  3.456356326E+01  1.110170547E+01  7.091945917E+00  3.699043615E+01  3.300000000E-01  0.00000E+00  9.000E+00
       4     1     1     2   502     0  9.178980913E+00 -1.281263702E+01  3.384784903E+01  3.736768982E+01  1.500000000E+00  0.00000E+00  9.000E+00
      21     1     1     2   511   501 -1.022749841E+02  4.098098854E+01 -1.046690378E+02  1.519711199E+02  3.015782986E-06  0.00000E+00  9.000E+00
</event>
<event>
      8  10001  1.86641E-02  9.99298E+01 -1.00000E+00  1.26230E-01
       2    -1     0     0   501     0  0.000000000E+00  0.000000000E+00  2.373551176E+02  2.373551176E+02  0.000000000E+00  0.00000E+00  9.000E+00
      -2    -1     0     0     0   502  0.000000000E+00  0.000000000E+00 -4.104003480E+01  4.104003480E+01  0.000000000E+00  0.00000E+00  9.000E+00
      23     2     1     2     0     0 -1.594716254E+01 -3.072486690E+01  1.392793636E+02  1.700362371E+02  9.118800000E+01  0.00000E+00  9.000E+00
     -13     1     3     3     0     0 -5.371597860E+01 -1.323789296E+01  8.863578827E+01  1.044842682E+02  1.057000000E-01  0.00000E+00  9.000E+00
      13     1     3     3     0     0  3.776881606E+01 -1.748697394E+01  5.064357536E+01  6.555196886E+01  1.057000000E-01  0.00000E+00  9.000E+00
       2     1     1     2   511     0 -1.988493831E+00  2.510746149E+00  5.709792491E+01  5.718863421E+01  3.300000000E-01  0.00000E+00  9.000E+00
      -2     1     1     2     0   502  1.763262225E+01 -1.611486105E+00  9.175951147E+00  1.994525594E+01  3.300000000E-01  0.00000E+00  9.000E+00
      21     1     1     2   501   511  3.030341141E-01  2.982560686E+01 -9.238156897E+00  3.122502517E+01  1.994752947E-06  0.00000E+00  9.000E+00
</event>
<event>
      8  10001  1.22132E-02  6.45369E+01 -1.00000E+00  1.35803E-01
      -3    -1     0     0     0   501  0.000000000E+00  0.000000000E+00  3.357240669E+02  3.357240669E+02  0.000000000E+00  0.00000E+00  9.000E+00
       1    -1     0     0   502     0  0.000000000E+00  0.000000000E+00 -3.637826981E+02  3.637826981E+02  0.000000000E+00  0.00000E+00  9.000E+00
      23     2     1     2     0     0  2.261097301E+02 -1.585773797E+02  8.019977604E+01  3.016946317E+02  9.118800000E+01  0.00000E+00  9.000E+00
     -13     1     3     3     0     0  2.296962570E+00  9.549079400E+00  7.839946241E+00  1.256729422E+01  1.057000000E-01  0.00000E+00  9.000E+00
      13     1     3     3     0     0  2.238127675E+02 -1.681264591E+02  7.235982980E+01  2.891273375E+02  1.057000000E-01  0.00000E+00  9.000E+00
      -4     1     1     2     0   501 -2.240120110E+02  1.767453488E+02 -1.399134711E+02  3.178023423E+02  1.500000000E+00  0.00000E+00  9.000E+00
       2     1     1     2   511     0  2.781246997E+01 -3.027261938E+01  1.561540191E+01  4.397629642E+01  3.300000000E-01  0.00000E+00  9.000E+00
      21     1     1     2   502   511 -2.991018906E+01  1.210465028E+01  1.603966195E+01  3.603349447E+01  4.768371582E-07  0.00000E+00  9.000E+00
</event>
<event>
      8  10001  1.06282E-02  2.34575E+02 -1.00000E+00  1.11026E-01
       2    -1     0     0   501     0  0.000000000E+00  0.000000000E+00  1.442886858E+03  1.442886858E+03  0.000000000E+00  0.00000E+00  9.000E+00
       4    -1     0     0   502     0  0.000000000E+00  0.000000000E+00 -2.333748043E+02  2.333748043E+02  0.000000000E+00  0.00000E+00  9.000E+00
      23     2     1     2     0     0  2.984564482E+02 -1.782350726E+02  6.987561945E+02  7.857604363E+02  9.118800000E+01  0.00000E+00  9.000E+00
     -13     1     3     3     0     0  2.551189001E+01  7.905220314E+00  7.982156107E+01  8.417150245E+01  1.057000000E-01  0.00000E+00  9.000E+00
      13     1     3     3     0     0  2.729445582E+02 -1.861402929E+02  6.189346334E+02  7.015889339E+02  1.057000000E-01  0.00000E+00  9.000E+00
       2     1     1     2   501     0 -3.211373325E+02  4.716794205E+01 -2.646907621E+01  3.256604397E+02  3.300000000E-01  0.00000E+00  9.000E+00
       4     1     1     2   512     0  8.923272878E+00  4.718704709E+01  4.669040089E+01  6.699616218E+01  1.500000000E+00  0.00000E+00  9.000E+00
      21     1     1     2   502   512  1.375761146E+01  8.388008341E+01  4.905345346E+02  4.978446242E+02  7.629394531E-06  0.00000E+00  9.000E+00
</event>
<event>
      8  10001  1.08958E-02  2.02837E+02 -1.00000E+00  1.13347E-01
      -4    -1     0     0     0   501  0.000000000E+00  0.000000000E+00  1.568262317E+02  1.568262317E+02  0.000000000E+00  0.00000E+00  9.000E+00
      -4    -1     0     0     0   502  0.000000000E+00  0.000000000E+00 -5.841732543E+02  5.841732543E+02  0.000000000E+00  0.00000E+00  9.000E+00
      23     2     1     2     0     0 -5.606842564E+01 -4.250453920E+00 -3.346352003E+02  3.513654840E+02  9.118800000E+01  0.00000E+00  9.000E+00
     -13     1     3     3     0     0 -4.683520143E+01 -3.132197482E+01 -9.827604147E+01  1.132819213E+02  1.057000000E-01  0.00000E+00  9.000E+00
      13     1     3     3     0     0 -9.233224210E+00  2.707152090E+01 -2.363591588E+02  2.380835627E+02  1.057000000E-01  0.00000E+00  9.000E+00
      -4     1     1     2     0   511  3.814675195E+01 -1.076663113E+01 -9.142554917E+00  4.070542151E+01  1.500000000E+00  0.00000E+00  9.000E+00
      -4     1     1     2     0   502 -5.615587242E+00 -7.485694883E+01  1.105998986E+02  1.336775418E+02  1.500000000E+00  0.00000E+00  9.000E+00
      21     1     1     2   511   501  2.353726093E+01  8.987403388E+01 -1.941691660E+02  2.152510386E+02  2.697398305E-06  0.00000E+00  9.000E+00
</event>
<event>
      8  10001  1.09410E-02  3.06266E+02 -1.00000E+00  1.07011E-01
       2    -1     0     0   501     0  0.000000000E+00  0.000000000E+00  1.597989972E+03  1.597989972E+03  0.000000000E+00  0.00000E+00  9.000E+00
       1    -1     0     0   502     0  0.000000000E+00  0.000000000E+00 -1.112778113E+02  1.112778113E+02  0.000000000E+00  0.00000E+00  9.000E+00
      23     2     1     2     0     0  3.035130917E+01 -5.376672704E+01 -6.883754947E+01  1.298688664E+02  9.118800000E+01  0.00000E+00  9.000E+00
     -13     1     3     3     0     0 -1.270018034E+01 -4.753745740E+01 -7.092149691E+01  8.631902648E+01  1.057000000E-01  0.00000E+00  9.000E+00
      13     1     3     3     0     0  4.305148951E+01 -6.229269642E+00  2.083947436E+00  4.354983994E+01  1.057000000E-01  0.00000E+00  9.000E+00
       2     1     1     2   501     0 -8.684564074E+01 -2.908437257E+01  3.908652618E+02  4.014521489E+02  3.300000000E-01  0.00000E+00  9.000E+00
       1     1     1     2   511     0  3.635135182E+01  4.715900903E+01  1.362116595E+02  1.486577209E+02  3.300000000E-01  0.00000E+00  9.000E+00
      21     1     1     2   502   511  2.014297975E+01  3.569209058E+01  1.028472789E+03  1.029289047E+03  0.000000000E+00  0.00000E+00  9.000E+00
</event>
<event>
      8  10001  1.12599E-02  2.98254E+02 -1.00000E+00  1.07397E-01
      21    -1     0     0   501   512  0.000000000E+00  0.000000000E+00  2.054228515E+03  2.054228515E+03  0.000000000E+00  0.00000E+00  9.000E+00
      -1    -1     0     0     0   502  0.000000000E+00  0.000000000E+00 -2.531529910E+02  2.531529910E+02  0.000000000E+00  0.00000E+00  9.000E+00
      23     2     1     2     0     0 -7.064511287E+00  1.411497842E+01 -1.543682228E+02  1.799831645E+02  9.118800000E+01  0.00000E+00  9.000E+00
     -13     1     3     3     0     0  2.364779600E+01 -6.404967580E+00 -1.369879697E+02  1.391616215E+02  1.057000000E-01  0.00000E+00  9.000E+00
      13     1     3     3     0     0 -3.071230729E+01  2.051994600E+01 -1.738025306E+01  4.082154299E+01  1.057000000E-01  0.00000E+00  9.000E+00
       2     1     1     2   501     0  5.927468697E+01 -2.079791212E+00 -8.922393008E+00  5.997943017E+01  3.300000000E-01  0.00000E+00  9.000E+00
      -2     1     1     2     0   502  3.756191569E+01  2.723871217E+02  4.781670496E+02  5.515881415E+02  3.300000000E-01  0.00000E+00  9.000E+00
      -1     1     1     2     0   512 -8.977209138E+01 -2.844223089E+02  1.486199090E+03  1.515830770E+03  3.300000000E-01  0.00000E+00  9.000E+00
</event>
<event>
      8  10001  1.17104E-02  3.01956E+02 -1.00000E+00  1.07217E-01
      -3    -1     0     0     0   501  0.000000000E+00  0.000000000E+00  1.227933499E+02  1.227933499E+02  0.000000000E+00  0.00000E+00  9.000E+00
       1    -1     0     0   502     0  0.000000000E+00  0.000000000E+00 -3.760485378E+02  3.760485378E+02  0.000000000E+00  0.00000E+00  9.000E+00
      23     2     1     2     0     0  4.169029604E+01  4.048555004E+01 -1.834112765E+01  1.096759265E+02  9.118800000E+01  0.00000E+00  9.000E+00
     -13     1     3     3     0     0 -1.114617253E+01 -2.237222926E+01  2.013270608E+00  2.507624842E+01  1.057000000E-01  0.00000E+00  9.000E+00
      13     1     3     3     0     0  5.283646857E+01  6.285777930E+01 -2.035439826E+01  8.459967808E+01  1.057000000E-01  0.00000E+00  9.000E+00
      -4     1     1     2     0   511 -6.013692568E-02  5.643348546E+01 -3.073797146E+01  6.427919405E+01  1.500000000E+00  0.00000E+00  9.000E+00
       2     1     1     2   502     0 -4.764359830E+01  1.108510982E+01  3.649025995E+01  6.102819095E+01  3.300000000E-01  0.00000E+00  9.000E+00
      21     1     1     2   511   501  6.013439183E+00 -1.080041453E+02 -2.406663487E+02  2.638585762E+02  2.697398305E-06  0.00000E+00  9.000E+00
</event>
<event>
      8  10001  1.72568E-02  9.38522E+02 -1.00000E+00  9.29442E-02
       1    -1     0     0   501     0  0.000000000E+00  0.000000000E+00  1.543545817E+02  1.543545817E+02  0.000000000E+00  0.00000E+00  9.000E+00
       2    -1     0     0   502     0  0.000000000E+00  0.000000000E+00 -1.869316523E+03  1.869316523E+03  0.000000000E+00  0.00000E+00  9.000E+00
      23     2     1     2     0     0 -3.834363588E+01 -8.669875606E+01 -5.716268053E+02  5.865657377E+02  9.118800000E+01  0.00000E+00  9.000E+00
     -13     1     3     3     0     0  4.976612964E+00  1.775558156E+01 -7.698876712E+01  7.916633621E+01  1.057000000E-01  0.00000E+00  9.000E+00
      13     1     3     3     0     0 -4.332024885E+01 -1.044543376E+02 -4.946380382E+02  5.073994014E+02  1.057000000E-01  0.00000E+00  9.000E+00
       2     1     1     2   501     0  4.950485273E+01  9.423114440E+01 -7.914486912E+02  7.985745919E+02  3.300000000E-01  0.00000E+00  9.000E+00
       1     1     1     2   511     0 -9.953881734E+01  9.159556646E+00 -4.753693824E+02  4.857654087E+02  3.300000000E-01  0.00000E+00  9.000E+00
      21     1     1     2   502   511  8.837760049E+01 -1.669194499E+01  1.234829377E+02  1.527653665E+02  6.877043296E-06  0.00000E+00  9.000E+00
</event>
<event>
      8  10001  1.05203E-02  5.93375E+02 -1.00000E+00  9.82229E-02
       2    -1     0     0   501     0  0.000000000E+00  0.000000000E+00  1.240923713E+03  1.240923713E+03  0.000000000E+00  0.00000E+00  9.000E+00
       1    -1     0     0   502     0  0.000000000E+00  0.000000000E+00 -4.484129684E+02  4.484129684E+02  0.000000000E+00  0.00000E+00  9.000E+00
      23     2     1     2     0     0 -3.751393385E+01  3.413106718E+01 -1.389169711E+02  1.737394635E+02  9.118800000E+01  0.00000E+00  9.000E+00
     -13     1     3     3     0     0  6.084087474E+00 -2.485172770E+01 -6.386108130E+01  6.879588191E+01  1.057000000E-01  0.00000E+00  9.000E+00
      13     1     3     3     0     0 -4.359802132E+01  5.898279488E+01 -7.505588984E+01  1.049435816E+02  1.057000000E-01  0.00000E+00  9.000E+00
       1     1     1     2   501     0 -7.246048050E+01 -4.199261471E+02  5.239834171E+02  6.753867193E+02  3.300000000E-01  0.00000E+00  9.000E+00
       2     1     1     2   512     0  2.520244169E+01  2.389804441E+02 -1.324045153E+02  2.743681474E+02  3.300000000E-01  0.00000E+00  9.000E+00
      21     1     1     2   502   512  8.477197266E+01  1.468146359E+02  5.398488139E+02  5.658423513E+02  1.078959322E-05  0.00000E+00  9.000E+00
</event>
<event>
      8  10001  1.22541E-02  4.55873E+01 -1.00000E+00  1.44548E-01
       2    -1     0     0   501     0  0.000000000E+00  0.000000000E+00  1.071452655E+02  1.071452655E+02  0.000000000E+00  0.00000E+00  9.000E+00
      -1    -1     0     0     0   502  0.000000000E+00  0.000000000E+00 -1.719448601E+02  1.719448601E+02  0.000000000E+00  0.00000E+00  9.000E+00
      23     2     1     2     0     0 -7.326906113E+01 -7.091691988E+01 -3.067014032E+01  1.401908474E+02  9.118800000E+01  0.00000E+00  9.000E+00
     -13     1     3     3     0     0  7.413224186E+00 -3.838412534E+01 -3.584952628E+01  5.304240453E+01  1.057000000E-01  0.00000E+00  9.000E+00
      13     1     3     3     0     0 -8.068228532E+01 -3.253279454E+01  5.179385960E+00  8.714844288E+01  1.057000000E-01  0.00000E+00  9.000E+00
       2     1     1     2   511     0  3.829869953E+00 -6.289135870E-01  1.447002512E+01  1.498512473E+01  3.300000000E-01  0.00000E+00  9.000E+00
      -1     1     1     2     0   502  5.868322399E+01  7.041767193E+01 -2.067386820E+01  9.396747854E+01  3.300000000E-01  0.00000E+00  9.000E+00
      21     1     1     2   501   511  1.075596719E+01  1.128161542E+00 -2.792561116E+01  2.994667490E+01  1.066240300E-06  0.00000E+00  9.000E+00
</event>
<event>
      8  10001  1.05291E-02  8.24849E+02 -1.00000E+00  9.43715E-02
       1    -1     0     0   501     0  0.000000000E+00  0.000000000E+00  1.010810299E+03  1.010810299E+03  0.000000000E+00  0.00000E+00  9.000E+00
       2    -1     0     0   502     0  0.000000000E+00  0.000000000E+00 -5.024300340E+02  5.024300340E+02  0.000000000E+00  0.00000E+00  9.000E+00
      23     2     1     2     0     0  1.976763558E+02 -5.085330637E+00 -1.900555845E+02  2.890297195E+02  9.118800000E+01  0.00000E+00  9.000E+00
     -13     1     3     3     0     0  1.041738613E+02  4.288414959E+01 -9.697165728E+01  1.486430528E+02  1.057000000E-01  0.00000E+00  9.000E+00
      13     1     3     3     0     0  9.350249458E+01 -4.796948023E+01 -9.308392720E+01  1.403866667E+02  1.057000000E-01  0.00000E+00  9.000E+00
       2     1     1     2   501     0  1.287881335E+02  3.287523186E+02  1.613842781E+02  3.882131688E+02  3.300000000E-01  0.00000E+00  9.000E+00
       1     1     1     2   511     0 -9.882378023E+01 -3.133098241E+01 -6.979841025E+01  1.249787861E+02  3.300000000E-01  0.00000E+00  9.000E+00
      21     1     1     2   502   511 -2.276407091E+02 -2.923360056E+02  6.068499818E+02  7.110186586E+02  1.078959322E-05  0.00000E+00  9.000E+00
</event>
<event>
      8  10001  1.18866E-02  6.24311E+01 -1.00000E+00  1.36591E-01
      -2    -1     0     0     0   501  0.000000000E+00  0.000000000E+00  1.017426140E+02  1.017426140E+02  0.000000000E+00  0.00000E+00  9.000E+00
       2    -1     0     0   502     0  0.000000000E+00  0.000000000E+00 -6.000715463E+02  6.000715463E+02  0.000000000E+00  0.00000E+00  9.000E+00
      23     2     1     2     0     0  2.145300096E+02 -9.697124640E+01 -2.215216088E+02  3.358773916E+02  9.118800000E+01  0.00000E+00  9.000E+00
     -13     1     3     3     0     0  1.879239781E+02 -8.291556879E+01 -2.260671712E+02  3.054452326E+02  1.057000000E-01  0.00000E+00  9.000E+00
      13     1     3     3     0     0  2.660603154E+01 -1.405567762E+01  4.545562373E+00  3.043215894E+01  1.057000000E-01  0.00000E+00  9.000E+00
      -2     1     1     2     0   512  3.146388547E-01 -1.205804477E+00  6.906029048E-01  1.462461766E+00  3.300000000E-01  0.00000E+00  9.000E+00
       2     1     1     2   502     0 -1.795149889E+02  8.436543409E+01 -2.343148224E+02  3.069962583E+02  3.300000000E-01  0.00000E+00  9.000E+00
      21     1     1     2   512   501 -3.532965953E+01  1.381161679E+01 -4.318310406E+01  5.747804865E+01  3.568322551E-06  0.00000E+00  9.000E+00
</event>
<event>
      8  10001  2.21258E-02  5.13199E+01 -1.00000E+00  1.41441E-01
       1    -1     0     0   501     0  0.000000000E+00  0.000000000E+00  8.175830729E+01  8.175830729E+01  0.000000000E+00  0.00000E+00  9.000E+00
      21    -1     0     0   511   502  0.000000000E+00  0.000000000E+00 -1.700724289E+02  1.700724289E+02  0.000000000E+00  0.00000E+00  9.000E+00
      23     2     1     2     0     0  3.597381305E+01  5.889596574E+01 -2.570845977E+01  1.172135924E+02  9.118800000E+01  0.00000E+00  9.000E+00
     -13     1     3     3     0     0  3.107174449E+00 -2.263637353E+01 -1.777520271E+01  2.894872956E+01  1.057000000E-01  0.00000E+00  9.000E+00
      13     1     3     3     0     0  3.286663860E+01  8.153233927E+01 -7.933257060E+00  8.826486288E+01  1.057000000E-01  0.00000E+00  9.000E+00
       1     1     1     2   501     0 -5.642150551E+00 -2.374443578E+01 -5.001827469E+01  5.565580649E+01  3.300000000E-01  0.00000E+00  9.000E+00
      -2     1     1     2     0   502 -1.313026186E+01  1.319831671E+01  1.190100613E+01  2.209846573E+01  3.300000000E-01  0.00000E+00  9.000E+00
       2     1     1     2   511     0 -1.720140063E+01 -4.834984667E+01 -2.448839332E+01  5.686287158E+01  3.300000000E-01  0.00000E+00  9.000E+00
</event>
<event>
      8  10001  1.05457E-02  1.63998E+03 -1.00000E+00  8.72472E-02
       2    -1     0     0   501     0  0.000000000E+00  0.000000000E+00  1.356657284E+03  1.356657284E+03  0.000000000E+00  0.00000E+00  9.000E+00
       1    -1     0     0   502     0  0.000000000E+00  0.000000000E+00 -9.343396218E+02  9.343396218E+02  0.000000000E+00  0.00000E+00  9.000E+00
      23     2     1     2     0     0  2.445649438E+02 -1.095538246E+02  1.015157615E+03  1.053885329E+03  9.118800000E+01  0.00000E+00  9.000E+00
     -13     1     3     3     0     0  1.111764204E+02 -9.779181355E+01  4.865318355E+02  5.085633426E+02  1.057000000E-01  0.00000E+00  9.000E+00
      13     1     3     3     0     0  1.333885234E+02 -1.176201101E+01  5.286257790E+02  5.453219861E+02  1.057000000E-01  0.00000E+00  9.000E+00
       1     1     1     2   511     0 -1.018336658E+02  1.882150717E+01  1.385227192E+02  1.729537432E+02  3.300000000E-01  0.00000E+00  9.000E+00
       2     1     1     2   502     0  7.790518450E+01 -2.382353364E+02 -2.189619209E+01  2.516045417E+02  3.300000000E-01  0.00000E+00  9.000E+00
      21     1     1     2   501   511 -2.206364625E+02  3.289676538E+02 -7.094664800E+02  8.125532918E+02  3.411968960E-05  0.00000E+00  9.000E+00
</event>
<event>
      8  10001  1.08231E-02  6.79283E+02 -1.00000E+00  9.66038E-02
       3    -1     0     0   501     0  0.000000000E+00  0.000000000E+00  7.607833778E+02  7.607833778E+02  0.000000000E+00  0.00000E+00  9.000E+00
       2    -1     0     0   502     0  0.000000000E+00  0.000000000E+00 -3.260802612E+02  3.260802612E+02  0.000000000E+00  0.00000E+00  9.000E+00
      23     2     1     2     0     0 -8.300976484E+01 -1.855646737E+02 -1.923207281E+02  2.943253013E+02  9.118800000E+01  0.00000E+00  9.000E+00
     -13     1     3     3     0     0 -4.167377846E+01 -1.638671939E+02 -1.779712839E+02  2.454851321E+02  1.057000000E-01  0.00000E+00  9.000E+00
      13     1     3     3     0     0 -4.133598637E+01 -2.169747975E+01 -1.434944420E+01  4.884016910E+01  1.057000000E-01  0.00000E+00  9.000E+00
       4     1     1     2   501     0  6.541669429E+01  1.091997683E+02  1.704070527E+02  2.127081261E+02  1.500000000E+00  0.00000E+00  9.000E+00
       1     1     1     2   511     0  2.751462685E+01 -2.617031586E+01 -5.003402773E+01  6.281284068E+01  3.300000000E-01  0.00000E+00  9.000E+00
      21     1     1     2   502   511 -9.921556301E+00  1.025352212E+02  5.066508197E+02  5.170173710E+02  1.618438983E-05  0.00000E+00  9.000E+00
</event>
<event>
      8  10001  1.93110E-02  2.40633E+01 -1.00000E+00  1.64071E-01
       2    -1     0     0   501     0  0.000000000E+00  0.000000000E+00  1.066104644E+01  1.066104644E+01  0.000000000E+00  0.00000E+00  9.000E+00
       2    -1     0     0   502     0  0.000000000E+00  0.000000000E+00 -7.365519391E+02  7.365519391E+02  0.000000000E+00  0.00000E+00  9.000E+00
      23     2     1     2     0     0 -4.313262727E+00  4.864996414E+01 -2.961891449E+02  3.137334604E+02  9.118800000E+01  0.00000E+00  9.000E+00
     -13     1     3     3     0     0  3.441932097E+01  3.942325479E+01 -2.348060972E+02  2.405676561E+02  1.057000000E-01  0.00000E+00  9.000E+00
      13     1     3     3     0     0 -3.873258369E+01  9.226709355E+00 -6.138304772E+01  7.316580434E+01  1.057000000E-01  0.00000E+00  9.000E+00
       2     1     1     2   501     0 -1.874580892E+00 -2.123699015E+01 -1.598726698E+02  1.612882614E+02  3.300000000E-01  0.00000E+00  9.000E+00
       2     1     1     2   512     0  4.271535902E+00 -4.966635538E+00 -1.569018674E+02  1.570389072E+02  3.300000000E-01  0.00000E+00  9.000E+00
      21     1     1     2   502   512  1.916307717E+00 -2.244633845E+01 -1.129272105E+02  1.151523566E+02  2.336015456E-06  0.00000E+00  9.000E+00
</event>
<event>
      8  10001  1.25931E-02  1.19837E+02 -1.00000E+00  1.22647E-01
       1    -1     0     0   501     0  0.000000000E+00  0.000000000E+00  1.162866202E+03  1.162866202E+03  0.000000000E+00  0.00000E+00  9.000E+00
       2    -1     0     0   502     0  0.000000000E+00  0.000000000E+00 -3.483237977E+01  3.483237977E+01  0.000000000E+00  0.00000E+00  9.000E+00
      23     2     1     2     0     0  5.623968849E+01  7.846673255E+01  1.044212754E+03  1.052623132E+03  9.118800000E+01  0.00000E+00  9.000E+00
     -13     1     3     3     0     0  3.427506513E+01  8.655366469E+01  5.474125543E+02  5.552718548E+02  1.057000000E-01  0.00000E+00  9.000E+00
      13     1     3     3     0     0  2.196462337E+01 -8.086932139E+00  4.968002000E+02  4.973512773E+02  1.057000000E-01  0.00000E+00  9.000E+00
       2     1     1     2   511     0  1.361547464E+00  8.416113104E+00  2.133754711E+01  2.298009112E+01  3.300000000E-01  0.00000E+00  9.000E+00
       1     1     1     2   502     0 -3.831578775E+01 -4.988867709E+01  3.324093257E+01  7.114807229E+01  3.300000000E-01  0.00000E+00  9.000E+00
      21     1     1     2   501   511 -1.928544821E+01 -3.699416857E+01  2.924258851E+01  5.094728652E+01  1.261592536E-06  0.00000E+00  9.000E+00
</event>
<event>
      8  10001  1.06605E-02  2.31270E+02 -1.00000E+00  1.11248E-01
       2    -1     0     0   501     0  0.000000000E+00  0.000000000E+00  3.737738957E+02  3.737738957E+02  0.000000000E+00  0.00000E+00  9.000E+00
      -2    -1     0     0     0   502  0.000000000E+00  0.000000000E+00 -3.709593037E+02  3.709593037E+02  0.000000000E+00  0.00000E+00  9.000E+00
      23     2     1     2     0     0 -2.564044559E+02 -7.302928896E+01  5.416727953E+00  2.818175196E+02  9.118800000E+01  0.00000E+00  9.000E+00
     -13     1     3     3     0     0 -1.515316922E+02  3.748294347E+00 -2.557444672E+00  1.515996542E+02  1.057000000E-01  0.00000E+00  9.000E+00
      13     1     3     3     0     0 -1.048727637E+02 -7.677758331E+01  7.974172625E+00  1.302178654E+02  1.057000000E-01  0.00000E+00  9.000E+00
       2     1     1     2   511     0 -1.165797721E+01 -2.842965895E+00  1.390127922E+02  1.395301264E+02  3.300000000E-01  0.00000E+00  9.000E+00
      -2     1     1     2     0   502  1.822894945E+02  6.370475588E+01 -5.476717126E+01  2.007169840E+02  3.300000000E-01  0.00000E+00  9.000E+00
      21     1     1     2   501   511  8.577293868E+01  1.216749898E+01 -8.684775682E+01  1.226685694E+02  1.907348633E-06  0.00000E+00  9.000E+00
</event>
<event>
      8  10001  1.29429E-02  4.56939E+01 -1.00000E+00  1.44486E-01
       1    -1     0     0   501     0  0.000000000E+00  0.000000000E+00  3.913288270E+02  3.913288270E+02  0.000000000E+00  0.00000E+00  9.000E+00
      -3    -1     0     0     0   502  0.000000000E+00  0.000000000E+00 -4.332404366E+01  4.332404366E+01  0.000000000E+00  0.00000E+00  9.000E+00
      23     2     1     2     0     0  2.914835119E+01 -3.312295400E+01  2.905968483E+02  3.077475199E+02  9.118800000E+01  0.00000E+00  9.000E+00
     -13     1     3     3     0     0  1.741498477E+01  3.101920569E+01  1.179230542E+02  1.231719559E+02  1.057000000E-01  0.00000E+00  9.000E+00
      13     1     3     3     0     0  1.173336642E+01 -6.414215969E+01  1.726737940E+02  1.845755641E+02  1.057000000E-01  0.00000E+00  9.000E+00
       2     1     1     2   511     0 -9.900138527E+00 -3.360366989E+01  4.187844564E+01  5.459974800E+01  3.300000000E-01  0.00000E+00  9.000E+00
      -4     1     1     2     0   502 -1.968481967E+01  4.979270374E+01  1.354942309E+01  5.525072250E+01  1.500000000E+00  0.00000E+00  9.000E+00
      21     1     1     2   501   511  4.366070018E-01  1.693392015E+01  1.980066359E+00  1.705488024E+01  8.169859744E-07  0.00000E+00  9.000E+00
</event>
<event>
      8  10001  1.23553E-02  3.31387E+01 -1.00000E+00  1.53657E-01
       2    -1     0     0   501     0  0.000000000E+00  0.000000000E+00  1.763637801E+02  1.763637801E+02  0.000000000E+00  0.00000E+00  9.000E+00
      -2    -1     0     0     0   502  0.000000000E+00  0.000000000E+00 -1.529344501E+02  1.529344501E+02  0.000000000E+00  0.00000E+00  9.000E+00
      23     2     1     2     0     0  5.275969218E+01  2.270556424E+01  1.327251263E+02  1.709688225E+02  9.118800000E+01  0.00000E+00  9.000E+00
     -13     1     3     3     0     0  8.630831812E+00  2.212734748E+01  1.236527877E+02  1.259131996E+02  1.057000000E-01  0.00000E+00  9.000E+00
      13     1     3     3     0     0  4.412886037E+01  5.782167560E-01  9.072338625E+00  4.505562287E+01  1.057000000E-01  0.00000E+00  9.000E+00
       1     1     1     2   511     0  4.592009013E+00 -3.191107489E+01 -2.163887072E+00  3.231399936E+01  3.300000000E-01  0.00000E+00  9.000E+00
      -1     1     1     2     0   502 -5.743756727E+01  1.181562669E+01 -8.234607849E+01  1.010923771E+02  3.300000000E-01  0.00000E+00  9.000E+00
      21     1     1     2   501   511  8.586607550E-02 -2.610116037E+00 -2.478583076E+01  2.492303122E+01  8.259061849E-07  0.00000E+00  9.000E+00
</event>
<event>
      8  10001  2.06392E-02  2.07154E+01 -1.00000E+00  1.69464E-01
       2    -1     0     0   501     0  0.000000000E+00  0.000000000E+00  3.892544667E+01  3.892544667E+01  0.000000000E+00  0.00000E+00  9.000E+00
       2    -1     0     0   502     0  0.000000000E+00  0.000000000E+00 -3.539963115E+02  3.539963115E+02  0.000000000E+00  0.00000E+00  9.000E+00
      23     2     1     2     0     0  5.496724559E+00  9.781358050E-01 -2.150621703E+01  9.385595051E+01  9.118800000E+01  0.00000E+00  9.000E+00
     -13     1     3     3     0     0  4.209674915E+01 -1.836039314E+01 -2.504197734E+01  5.231015319E+01  1.057000000E-01  0.00000E+00  9.000E+00
      13     1     3     3     0     0 -3.660002459E+01  1.933852894E+01  3.535760312E+00  4.154579732E+01  1.057000000E-01  0.00000E+00  9.000E+00
       2     1     1     2   501     0 -1.563765139E+01 -1.731566581E+01 -2.090450041E+02  2.103432696E+02  3.300000000E-01  0.00000E+00  9.000E+00
       2     1     1     2   511     0  4.130197884E-01  1.224455883E+00 -4.801140539E+01  4.802992635E+01  3.300000000E-01  0.00000E+00  9.000E+00
      21     1     1     2   502   511  9.727907040E+00  1.511307412E+01 -3.650823834E+01  4.069261176E+01  1.168007728E-06  0.00000E+00  9.000E+00
</event>
<event>
      8  10001  8.57997E-02  4.68656E+01 -1.00000E+00  1.43810E-01
      -4    -1     0     0     0   501  0.000000000E+00  0.000000000E+00  3.058726103E+02  3.058726103E+02  0.000000000E+00  0.00000E+00  9.000E+00
      -2    -1     0     0     0   502  0.000000000E+00  0.000000000E+00 -3.760469624E+01  3.760469624E+01  0.000000000E+00  0.00000E+00  9.000E+00
      23     2     1     2     0     0  2.030334334E+01 -3.859882202E+01  2.620783165E+02  2.808956927E+02  9.118800000E+01  0.00000E+00  9.000E+00
     -13     1     3     3     0     0 -2.793490418E+01 -4.420597034E+01  1.265055283E+02  1.368874960E+02  1.057000000E-01  0.00000E+00  9.000E+00
      13     1     3     3     0     0  4.823824752E+01  5.607148320E+00  1.355727882E+02  1.440081967E+02  1.057000000E-01  0.00000E+00  9.000E+00
      -4     1     1     2     0   501  2.756238135E+00  7.438054761E+00 -4.717444744E+00  9.350176052E+00  1.500000000E+00  0.00000E+00  9.000E+00
      -2     1     1     2     0   512 -1.317269522E+00 -1.875296920E+00 -8.761133281E+00  9.061914472E+00  3.300000000E-01  0.00000E+00  9.000E+00
      21     1     1     2   512   502 -2.174231195E+01  3.303606417E+01  1.966817557E+01  4.416952338E+01  1.430511475E-06  0.00000E+00  9.000E+00
</event>
<event>
      8  10001  1.08363E-02  1.14635E+02 -1.00000E+00  1.23503E-01
       2    -1     0     0   501     0  0.000000000E+00  0.000000000E+00  3.945808533E+03  3.945808533E+03  0.000000000E+00  0.00000E+00  9.000E+00
       3    -1     0     0   502     0  0.000000000E+00  0.000000000E+00 -4.682127425E+01  4.682127425E+01  0.000000000E+00  0.00000E+00  9.000E+00
      23     2     1     2     0     0 -1.146055650E+02 -1.733157529E+02  2.945352991E+02  3.718051633E+02  9.118800000E+01  0.00000E+00  9.000E+00
     -13     1     3     3     0     0 -7.382025887E+01 -1.240995663E+02  2.641293335E+02  3.010223397E+02  1.057000000E-01  0.00000E+00  9.000E+00
      13     1     3     3     0     0 -4.078530610E+01 -4.921618655E+01  3.040596562E+01  7.078282369E+01  1.057000000E-01  0.00000E+00  9.000E+00
       1     1     1     2   511     0 -3.974814317E+01 -2.790812147E-01  2.483691424E+02  2.515299835E+02  3.300000000E-01  0.00000E+00  9.000E+00
       4     1     1     2   502     0  9.772716827E+01  1.677932490E+02  3.134769378E+03  3.140778005E+03  1.500000000E+00  0.00000E+00  9.000E+00
      21     1     1     2   501   511  5.662653987E+01  5.801585110E+00  2.213134386E+02  2.285166548E+02  1.144409180E-05  0.00000E+00  9.000E+00
</event>
<event>
      8  10001  1.07626E-02  3.77951E+02 -1.00000E+00  1.04048E-01
      -2    -1     0     0     0   501  0.000000000E+00  0.000000000E+00  2.563454774E+02  2.563454774E+02  0.000000000E+00  0.00000E+00  9.000E+00
       2    -1     0     0   502     0  0.000000000E+00  0.000000000E+00 -4.062046128E+02  4.062046128E+02  0.000000000E+00  0.00000E+00  9.000E+00
      23     2     1     2     0     0 -3.844550304E+00  2.632694587E+01 -2.503369007E+02  2.677530651E+02  9.118800000E+01  0.00000E+00  9.000E+00
     -13     1     3     3     0     0  3.964882849E+00  5.965794417E+01 -1.768497079E+02  1.866832101E+02  1.057000000E-01  0.00000E+00  9.000E+00
      13     1     3     3     0     0 -7.809433153E+00 -3.333099830E+01 -7.348719288E+01  8.106985496E+01  1.057000000E-01  0.00000E+00  9.000E+00
      -1     1     1     2     0   501 -5.270987471E+01  5.450281943E+01  8.177360234E+01  1.115164524E+02  3.300000000E-01  0.00000E+00  9.000E+00
       1     1     1     2   511     0  5.429432367E+01  5.419553651E+01 -8.389561000E+01  1.136820656E+02  3.300000000E-01  0.00000E+00  9.000E+00
      21     1     1     2   502   511  2.260101338E+00 -1.350253018E+02  1.025997730E+02  1.695985071E+02  4.264961200E-06  0.00000E+00  9.000E+00
</event>
<event>
      8  10001  1.17726E-02  4.97553E+01 -1.00000E+00  1.42240E-01
       2    -1     0     0   501     0  0.000000000E+00  0.000000000E+00  1.614096947E+02  1.614096947E+02  0.000000000E+00  0.00000E+00  9.000E+00
      -4    -1     0     0     0   502  0.000000000E+00  0.000000000E+00 -1.611606303E+02  1.611606303E+02  0.000000000E+00  0.00000E+00  9.000E+00
      23     2     1     2     0     0 -3.862098358E+01  8.363133662E+01  6.752205444E+01  1.461514968E+02  9.118800000E+01  0.00000E+00  9.000E+00
     -13     1     3     3     0     0 -6.087059199E+01  2.450730355E+01  2.615021797E+01  7.063768094E+01  1.057000000E-01  0.00000E+00  9.000E+00
      13     1     3     3     0     0  2.224960841E+01  5.912403306E+01  4.137183647E+01  7.551381586E+01  1.057000000E-01  0.00000E+00  9.000E+00
       1     1     1     2   512     0  1.432814655E+00  1.160143890E+01  1.802733754E+01  2.148813954E+01  3.300000000E-01  0.00000E+00  9.000E+00
      -3     1     1     2     0   502  3.555795725E+01 -1.061861879E+02 -5.939843143E+01  1.267607923E+02  5.000000000E-01  0.00000E+00  9.000E+00
      21     1     1     2   501   512  1.630211677E+00  1.095341233E+01 -2.590189620E+01  2.816989632E+01  6.743495762E-07  0.00000E+00  9.000E+00
</event>
<event>
      8  10001  8.80320E-02  2.03624E+01 -1.00000E+00  1.70106E-01
      -4    -1     0     0     0   501  0.000000000E+00  0.000000000E+00  1.443912038E+01  1.443912038E+01  0.000000000E+00  0.00000E+00  9.000E+00
       2    -1     0     0   502     0  0.000000000E+00  0.000000000E+00 -7.071934277E+02  7.071934277E+02  0.000000000E+00  0.00000E+00  9.000E+00
      23     2     1     2     0     0 -4.363580929E-01  3.755316126E+01 -5.143876827E+02  5.237560213E+02  9.118800000E+01  0.00000E+00  9.000E+00
     -13     1     3     3     0     0 -1.302177588E+01  5.622330025E+00 -4.545702079E+02  4.547914493E+02  1.057000000E-01  0.00000E+00  9.000E+00
      13     1     3     3     0     0  1.258541779E+01  3.193083124E+01 -5.981747482E+01  6.896457200E+01  1.057000000E-01  0.00000E+00  9.000E+00
      -4     1     1     2     0   511 -5.356217064E-01 -3.050435837E+00  7.182126870E+00  7.963981152E+00  1.500000000E+00  0.00000E+00  9.000E+00
       2     1     1     2   502     0 -1.209156061E-01 -3.171617979E+01 -1.148177958E+02  1.191182849E+02  3.300000000E-01  0.00000E+00  9.000E+00
      21     1     1     2   511   501  1.092895405E+00 -2.786545631E+00 -7.073095563E+01  7.079426065E+01  9.536743164E-07  0.00000E+00  9.000E+00
</event>
<event>
      8  10001  1.06496E-02  1.45851E+02 -1.00000E+00  1.18998E-01
       2    -1     0     0   501     0  0.000000000E+00  0.000000000E+00  7.232315194E+02  7.232315194E+02  0.000000000E+00  0.00000E+00  9.000E+00
       1    -1     0     0   502     0  0.000000000E+00  0.000000000E+00 -2.029310968E+02  2.029310968E+02  0.000000000E+00  0.00000E+00  9.000E+00
      23     2     1     2     0     0  2.362796550E+02 -2.236572094E+02  2.890901512E+02  4.446785238E+02  9.118800000E+01  0.00000E+00  9.000E+00
     -13     1     3     3     0     0  1.153597691E+02 -9.704030889E+01  7.579690532E+01  1.687301986E+02  1.057000000E-01  0.00000E+00  9.000E+00
      13     1     3     3     0     0  1.209198859E+02 -1.266169005E+02  2.132932459E+02  2.759483252E+02  1.057000000E-01  0.00000E+00  9.000E+00
       1     1     1     2   511     0 -8.902001969E+01  1.113473434E+02  2.115367950E+02  2.550896300E+02  3.300000000E-01  0.00000E+00  9.000E+00
       2     1     1     2   502     0 -1.267877444E+02  1.053223564E+02  6.420213363E+01  1.768896654E+02  3.300000000E-01  0.00000E+00  9.000E+00
      21     1     1     2   501   511 -2.047189094E+01  6.987509543E+00 -4.452865721E+01  4.950479695E+01  8.259061849E-07  0.00000E+00  9.000E+00
</event>
<event>
      8  10001  1.05189E-02  1.88361E+03 -1.00000E+00  8.59415E-02
       2    -1     0     0   501     0  0.000000000E+00  0.000000000E+00  2.619243485E+03  2.619243485E+03  0.000000000E+00  0.00000E+00  9.000E+00
       1    -1     0     0   502     0  0.000000000E+00  0.000000000E+00 -1.280145116E+03  1.280145116E+03  0.000000000E+00  0.00000E+00  9.000E+00
      23     2     1     2     0     0  1.042338126E+01  1.437965439E+02 -1.041349000E+03  1.055229399E+03  9.118800000E+01  0.00000E+00  9.000E+00
     -13     1     3     3     0     0  2.604425340E+01  8.350535349E+01 -8.380861645E+02  8.426386400E+02  1.057000000E-01  0.00000E+00  9.000E+00
      13     1     3     3     0     0 -1.562087213E+01  6.029119043E+01 -2.032628359E+02  2.125907592E+02  1.057000000E-01  0.00000E+00  9.000E+00
       1     1     1     2   501     0 -2.747014225E+02 -6.260090769E+02  5.200623202E+02  8.589605122E+02  3.300000000E-01  0.00000E+00  9.000E+00
       2     1     1     2   511     0  5.657348511E+01 -3.710193594E+01  3.525252262E+01  7.628867622E+01  3.300000000E-01  0.00000E+00  9.000E+00
      21     1     1     2   502   511  2.077045561E+02  5.193144689E+02  1.825132526E+03  1.908910013E+03  5.285799584E-05  0.00000E+00  9.000E+00
</event>
<event>
      8  10001  1.53597E-02  4.03998E+01 -1.00000E+00  1.47865E-01
      21    -1     0     0   512   501  0.000000000E+00  0.000000000E+00  1.904538975E+02  1.904538975E+02  0.000000000E+00  0.00000E+00  9.000E+00
       1    -1     0     0   502     0  0.000000000E+00  0.000000000E+00 -1.761444361E+02  1.761444361E+02  0.000000000E+00  0.00000E+00  9.000E+00
      23     2     1     2     0     0 -4.281364172E+01  3.208389568E+00 -1.008253613E+02  1.425633421E+02  9.118800000E+01  0.00000E+00  9.000E+00
     -13     1     3     3     0     0  1.147359463E+00  3.775048296E+00  1.666005943E+01  1.712122005E+01  1.057000000E-01  0.00000E+00  9.000E+00
      13     1     3     3     0     0 -4.396100118E+01 -5.666587283E-01 -1.174854207E+02  1.254421220E+02  1.057000000E-01  0.00000E+00  9.000E+00
      -2     1     1     2     0   501  2.881702532E+01  4.465093782E-01 -3.055431245E+01  4.200351447E+01  3.300000000E-01  0.00000E+00  9.000E+00
       1     1     1     2   502     0  1.486907093E+01 -4.404491873E+01  2.109430553E+01  5.105019845E+01  3.300000000E-01  0.00000E+00  9.000E+00
       2     1     1     2   512     0 -8.724545290E-01  4.039001978E+01  1.245948296E+02  1.309812786E+02  3.300000000E-01  0.00000E+00  9.000E+00
</event>
<event>
      8  10001  2.96504E-02  7.82461E+01 -1.00000E+00  1.31409E-01
       4    -1     0     0   501     0  0.000000000E+00  0.000000000E+00  5.949509202E+01  5.949509202E+01  0.000000000E+00  0.00000E+00  9.000E+00
       2    -1     0     0   502     0  0.000000000E+00  0.000000000E+00 -7.761170866E+02  7.761170866E+02  0.000000000E+00  0.00000E+00  9.000E+00
      23     2     1     2     0     0  1.163221802E+00  4.176832348E+00 -4.819577618E+02  4.905276083E+02  9.118800000E+01  0.00000E+00  9.000E+00
     -13     1     3     3     0     0 -5.174447353E+00 -4.230032223E+01 -1.818891103E+02  1.868147526E+02  1.057000000E-01  0.00000E+00  9.000E+00
      13     1     3     3     0     0  6.337669155E+00  4.647715457E+01 -3.000686515E+02  3.037128557E+02  1.057000000E-01  0.00000E+00  9.000E+00
       4     1     1     2   501     0  4.501215743E+00  1.535429557E+01  5.316572113E+01  5.554150915E+01  1.500000000E+00  0.00000E+00  9.000E+00
       2     1     1     2   511     0  5.777878420E-01 -6.716183024E+00 -1.633730718E+01  1.767646625E+01  3.300000000E-01  0.00000E+00  9.000E+00
      21     1     1     2   502   511 -6.242225387E+00 -1.281494489E+01 -2.714926467E+02  2.718665949E+02  0.000000000E+00  0.00000E+00  9.000E+00
</event>
<event>
      8  10001  1.19932E-02  1.15259E+02 -1.00000E+00  1.23397E-01
      -2    -1     0     0     0   501  0.000000000E+00  0.000000000E+00  1.529584307E+02  1.529584307E+02  0.000000000E+00  0.00000E+00  9.000E+00
       4    -1     0     0   502     0  0.000000000E+00  0.000000000E+00 -3.692010481E+02  3.692010481E+02  0.000000000E+00  0.00000E+00  9.000E+00
      23     2     1     2     0     0 -3.095624406E+01 -6.823293493E+00 -2.996606784E+02  3.148279211E+02  9.118800000E+01  0.00000E+00  9.000E+00
     -13     1     3     3     0     0 -3.975847995E+01  1.613575989E+01 -5.920711254E+01  7.312039950E+01  1.057000000E-01  0.00000E+00  9.000E+00
      13     1     3     3     0     0  8.802235898E+00 -2.295905338E+01 -2.404535659E+02  2.417075216E+02  1.057000000E-01  0.00000E+00  9.000E+00
      -1     1     1     2     0   501  2.686303210E+01  5.259782030E+01 -1.034302251E+01  5.996032195E+01  3.300000000E-01  0.00000E+00  9.000E+00
       3     1     1     2   512     0  3.637146362E+00 -6.953245301E+01  2.396016794E+01  7.363647536E+01  5.000000000E-01  0.00000E+00  9.000E+00
      21     1     1     2   502   512  4.560655921E-01  2.375792620E+01  6.980091563E+01  7.373476029E+01  1.651812370E-06  0.00000E+00  9.000E+00
</event>
<event>
      8  10001  1.08628E-02  4.44051E+02 -1.00000E+00  1.01887E-01
       1    -1     0     0   501     0  0.000000000E+00  0.000000000E+00  6.433128480E+01  6.433128480E+01  0.000000000E+00  0.00000E+00  9.000E+00
       2    -1     0     0   502     0  0.000000000E+00  0.000000000E+00 -2.498844029E+03  2.498844029E+03  0.000000000E+00  0.00000E+00  9.000E+00
      23     2     1     2     0     0  1.213485181E+02 -8.703556393E+00 -1.338318044E+03  1.346926743E+03  9.118800000E+01  0.00000E+00  9.000E+00
     -13     1     3     3     0     0  1.036402404E+02 -3.658870790E+01 -1.185240644E+03  1.190325766E+03  1.057000000E-01  0.00000E+00  9.000E+00
      13     1     3     3     0     0  1.770827773E+01  2.788515150E+01 -1.530773994E+02  1.566009775E+02  1.057000000E-01  0.00000E+00  9.000E+00
       2     1     1     2   501     0 -1.665678498E+02 -2.480695174E+01 -5.645723163E+02  5.891538362E+02  3.300000000E-01  0.00000E+00  9.000E+00
       1     1     1     2   511     0  1.267111731E+02  4.148554059E+01 -5.286021827E+02  5.451579110E+02  3.300000000E-01  0.00000E+00  9.000E+00
      21     1     1     2   502   511 -8.149184138E+01 -7.975032460E+00 -3.020201339E+00  8.193682304E+01  5.033681948E-06  0.00000E+00  9.000E+00
</event>
<event>
      8  10001  1.29952E-02  1.40927E+02 -1.00000E+00  1.19620E-01
      -2    -1     0     0     0   501  0.000000000E+00  0.000000000E+00  5.764698690E+01  5.764698690E+01  0.000000000E+00  0.00000E+00  9.000E+00
       1    -1     0     0   502     0  0.000000000E+00  0.000000000E+00 -6.275328292E+02  6.275328292E+02  0.000000000E+00  0.00000E+00  9.000E+00
      23     2     1     2     0     0 -1.295501983E+00  2.916969071E+01 -2.616374233E+02  2.786071460E+02  9.118800000E+01  0.00000E+00  9.000E+00
     -13     1     3     3     0     0  2.854142306E+01  1.277949168E+01 -2.641825246E+01  4.093731151E+01  1.057000000E-01  0.00000E+00  9.000E+00
      13     1     3     3     0     0 -2.983692504E+01  1.639019903E+01 -2.352191708E+02  2.376698344E+02  1.057000000E-01  0.00000E+00  9.000E+00
      -2     1     1     2     0   501  2.357443641E+01  1.417981105E+01  3.676918723E+01  4.592279525E+01  3.300000000E-01  0.00000E+00  9.000E+00
       1     1     1     2   512     0 -2.007453806E+01 -3.324665766E+01 -4.106820606E+01  5.652462979E+01  3.300000000E-01  0.00000E+00  9.000E+00
      21     1     1     2   502   512 -2.204396372E+00 -1.010284410E+01 -3.039494002E+02  3.041252451E+02  1.206313194E-05  0.00000E+00  9.000E+00
</event>
<event>
      8  10001  1.08218E-02  9.10717E+01 -1.00000E+00  1.28145E-01
       2    -1     0     0   501     0  0.000000000E+00  0.000000000E+00  2.230353701E+02  2.230353701E+02  0.000000000E+00  0.00000E+00  9.000E+00
      -2    -1     0     0     0   502  0.000000000E+00  0.000000000E+00 -2.643974342E+02  2.643974342E+02  0.000000000E+00  0.00000E+00  9.000E+00
      23     2     1     2     0     0  3.828255332E+01  4.228316235E+01 -1.660226706E+02  1.978185993E+02  9.118800000E+01  0.00000E+00  9.000E+00
     -13     1     3     3     0     0 -6.251402983E+00  5.948540962E+01 -9.314169011E+01  1.106931778E+02  1.057000000E-01  0.00000E+00  9.000E+00
      13     1     3     3     0     0  4.453395630E+01 -1.720224727E+01 -7.288098053E+01  8.712542150E+01  1.057000000E-01  0.00000E+00  9.000E+00
       1     1     1     2   501     0  2.565416739E+01 -1.114330080E+02  3.949758825E+01  1.209777663E+02  3.300000000E-01  0.00000E+00  9.000E+00
      -1     1     1     2     0   511 -7.045944186E+01  7.284745888E+01  2.032440012E+01  1.033657359E+02  3.300000000E-01  0.00000E+00  9.000E+00
      21     1     1     2   511   502  6.522721151E+00 -3.697613253E+00  6.483861819E+01  6.527070280E+01  9.536743164E-07  0.00000E+00  9.000E+00
</event>
<event>
      8  10001  1.06769E-02  2.55706E+02 -1.00000E+00  1.09694E-01
       2    -1     0     0   501     0  0.000000000E+00  0.000000000E+00  3.387731398E+02  3.387731398E+02  0.000000000E+00  0.00000E+00  9.000E+00
       1    -1     0     0   502     0  0.000000000E+00  0.000000000E+00 -2.118687268E+02  2.118687268E+02  0.000000000E+00  0.00000E+00  9.000E+00
      23     2     1     2     0     0 -1.060364653E+01 -3.684531736E+01 -7.795077052E+01  1.259427993E+02  9.118800000E+01  0.00000E+00  9.000E+00
     -13     1     3     3     0     0  3.399117125E+01 -2.612555667E+01 -1.010108421E+01  4.404528930E+01  1.057000000E-01  0.00000E+00  9.000E+00
      13     1     3     3     0     0 -4.459481779E+01 -1.071976069E+01 -6.784968631E+01  8.189751002E+01  1.057000000E-01  0.00000E+00  9.000E+00
       2     1     1     2   512     0  1.300963555E+01 -1.367456974E+01  1.719106090E+02  1.729439530E+02  3.300000000E-01  0.00000E+00  9.000E+00
       1     1     1     2   502     0 -1.718874494E+01  6.420969298E+01  1.335362042E+02  1.491655602E+02  3.300000000E-01  0.00000E+00  9.000E+00
      21     1     1     2   501   512  1.478275592E+01 -1.368980589E+01 -1.005916296E+02  1.025895541E+02  1.348699152E-06  0.00000E+00  9.000E+00
</event>
<event>
      8  10001  1.63233E-02  2.45240E+02 -1.00000E+00  1.10336E-01
       4    -1     0     0   501     0  0.000000000E+00  0.000000000E+00  2.915741281E+02  2.915741281E+02  0.000000000E+00  0.00000E+00  9.000E+00
      -2    -1     0     0     0   502  0.000000000E+00  0.000000000E+00 -1.458970215E+02  1.458970215E+02  0.000000000E+00  0.00000E+00  9.000E+00
      23     2     1     2     0     0 -4.350250621E+01 -1.274684182E+01  7.419894225E+01  1.259987476E+02  9.118800000E+01  0.00000E+00  9.000E+00
     -13     1     3     3     0     0 -4.975549850E+01 -3.240813488E+01  1.215015919E+01  6.060968882E+01  1.057000000E-01  0.00000E+00  9.000E+00
      13     1     3     3     0     0  6.252992297E+00  1.966129306E+01  6.204878306E+01  6.538905878E+01  1.057000000E-01  0.00000E+00  9.000E+00
       4     1     1     2   511     0  2.388385786E+00 -9.994360257E+00 -6.457044826E+00  1.222845254E+01  1.500000000E+00  0.00000E+00  9.000E+00
      -2     1     1     2     0   502  1.924371862E+01  2.239798892E+01 -1.080316076E+02  1.119952131E+02  3.300000000E-01  0.00000E+00  9.000E+00
      21     1     1     2   501   511  2.187040180E+01  3.432131527E-01  1.859668168E+02  1.872487363E+02  2.697398305E-06  0.00000E+00  9.000E+00
</event>
<event>
      8  10001  1.12221E-02  1.61175E+02 -1.00000E+00  1.17227E-01
       3    -1     0     0   501     0  0.000000000E+00  0.000000000E+00  1.127377868E+02  1.127377868E+02  0.000000000E+00  0.00000E+00  9.000E+00
      -3    -1     0     0     0   502  0.000000000E+00  0.000000000E+00 -5.356831288E+02  5.356831288E+02  0.000000000E+00  0.00000E+00  9.000E+00
      23     2     1     2     0     0 -7.603669750E+01  6.221915921E+01 -3.264122230E+02  3.528639877E+02  9.118800000E+01  0.00000E+00  9.000E+00
     -13     1     3     3     0     0 -1.261736437E+01 -1.442524095E+01 -1.423878373E+02  1.436718234E+02  1.057000000E-01  0.00000E+00  9.000E+00
      13     1     3     3     0     0 -6.341933313E+01  7.664440016E+01 -1.840243858E+02  2.091921643E+02  1.057000000E-01  0.00000E+00  9.000E+00
       4     1     1     2   501     0  8.733573932E+01 -5.914343862E+01  1.008854391E+01  1.059693654E+02  1.500000000E+00  0.00000E+00  9.000E+00
      -4     1     1     2     0   511 -5.840321793E+01 -3.365067675E+01 -1.145052762E+02  1.328796907E+02  1.500000000E+00  0.00000E+00  9.000E+00
      21     1     1     2   511   502  4.710417611E+01  3.057495616E+01  7.883613349E+00  5.670787169E+01  1.089314633E-06  0.00000E+00  9.000E+00
</event>
<event>
      8  10001  1.10571E-02  2.38331E+02 -1.00000E+00  1.10778E-01
       4    -1     0     0   501     0  0.000000000E+00  0.000000000E+00  5.900283740E+01  5.900283740E+01  0.000000000E+00  0.00000E+00  9.000E+00
       1    -1     0     0   502     0  0.000000000E+00  0.000000000E+00 -5.852936972E+02  5.852936972E+02  0.000000000E+00  0.00000E+00  9.000E+00
      23     2     1     2     0     0  1.610107410E+01  6.467249920E+00 -2.446035318E+02  2.616241751E+02  9.118800000E+01  0.00000E+00  9.000E+00
     -13     1     3     3     0     0  5.950290627E+00  5.319790841E+00  6.511571133E+00  1.030135255E+01  1.057000000E-01  0.00000E+00  9.000E+00
      13     1     3     3     0     0  1.015078347E+01  1.147459079E+00 -2.511151029E+02  2.513228226E+02  1.057000000E-01  0.00000E+00  9.000E+00
       4     1     1     2   501     0 -6.754258970E+01  1.308046602E+01 -1.346424397E+02  1.512082556E+02  1.500000000E+00  0.00000E+00  9.000E+00
       1     1     1     2   512     0  5.189814350E+00 -4.889532120E+01 -1.662879552E+02  1.734055349E+02  3.300000000E-01  0.00000E+00  9.000E+00
      21     1     1     2   502   512  4.625170125E+01  2.934760526E+01  1.924306682E+01  5.805856891E+01  2.419684306E-06  0.00000E+00  9.000E+00
</event>
<event>
      8  10001  1.67388E-02  6.24101E+01 -1.00000E+00  1.36599E-01
      -4    -1     0     0     0   501  0.000000000E+00  0.000000000E+00  7.673403852E+01  7.673403852E+01  0.000000000E+00  0.00000E+00  9.000E+00
      -1    -1     0     0     0   502  0.000000000E+00  0.000000000E+00 -1.348496408E+02  1.348496408E+02  0.000000000E+00  0.00000E+00  9.000E+00
      23     2     1     2     0     0  3.664195202E+01 -4.232749343E-02 -5.316865453E+01  1.117353642E+02  9.118800000E+01  0.00000E+00  9.000E+00
     -13     1     3     3     0     0  3.268874625E+01 -3.392514298E+01 -6.066394364E+01  7.680881908E+01  1.057000000E-01  0.00000E+00  9.000E+00
      13     1     3     3     0     0  3.953205778E+00  3.388281549E+01  7.495289115E+00  3.492654510E+01  1.057000000E-01  0.00000E+00  9.000E+00
      -4     1     1     2     0   501 -3.172691275E+01  4.913884700E+00  2.122578163E+01  3.851658165E+01  1.500000000E+00  0.00000E+00  9.000E+00
      -1     1     1     2     0   511 -1.033867710E+01 -6.237960763E+00  1.529435906E+01  1.948914358E+01  3.300000000E-01  0.00000E+00  9.000E+00
      21     1     1     2   511   502  5.423637826E+00  1.366403557E+00 -4.146708849E+01  4.184258995E+01  6.743495762E-07  0.00000E+00  9.000E+00
</event>
<event>
      8  10001  1.07378E-02  1.30153E+02 -1.00000E+00  1.21085E-01
       2    -1     0     0   501     0  0.000000000E+00  0.000000000E+00  7.188172277E+02  7.188172277E+02  0.000000000E+00  0.00000E+00  9.000E+00
       1    -1     0     0   502     0  0.000000000E+00  0.000000000E+00 -1.650413359E+02  1.650413359E+02  0.000000000E+00  0.00000E+00  9.000E+00
      23     2     1     2     0     0  1.258899339E+02 -2.477274613E+02  4.922931171E+02  5.726123776E+02  9.118800000E+01  0.00000E+00  9.000E+00
     -13     1     3     3     0     0 -4.037142064E+00 -1.038812078E+01  3.291440432E-01  1.115038464E+01  1.057000000E-01  0.00000E+00  9.000E+00
      13     1     3     3     0     0  1.299270759E+02 -2.373393405E+02  4.919639730E+02  5.614619930E+02  1.057000000E-01  0.00000E+00  9.000E+00
       1     1     1     2   512     0 -2.982691029E+01  2.655061229E+01  4.245792430E+01  5.828690956E+01  3.300000000E-01  0.00000E+00  9.000E+00
       2     1     1     2   502     0 -8.450954575E+01  1.540315391E+02  4.274344497E+01  1.808167286E+02  3.300000000E-01  0.00000E+00  9.000E+00
      21     1     1     2   501   512 -1.155347784E+01  6.714530986E+01 -2.371859455E+01  7.214254787E+01  3.888489349E-06  0.00000E+00  9.000E+00
</event>
<event>
      8  10001  1.62933E-02  1.11960E+02 -1.00000E+00  1.23963E-01
      -2    -1     0     0     0   501  0.000000000E+00  0.000000000E+00  3.611753020E+02  3.611753020E+02  0.000000000E+00  0.00000E+00  9.000E+00
      21    -1     0     0   502   511  0.000000000E+00  0.000000000E+00 -4.774327729E+02  4.774327729E+02  0.000000000E+00  0.00000E+00  9.000E+00
      23     2     1     2     0     0 -7.170284881E-01  3.551896429E+01 -1.579942587E+02  1.858481856E+02  9.118800000E+01  0.00000E+00  9.000E+00
     -13     1     3     3     0     0 -2.555631204E+01 -3.846929288E+00 -1.277497790E+02  1.303377964E+02  1.057000000E-01  0.00000E+00  9.000E+00
      13     1     3     3     0     0  2.483928356E+01  3.936589358E+01 -3.024447966E+01  5.551038918E+01  1.057000000E-01  0.00000E+00  9.000E+00
      -1     1     1     2     0   501  5.895083822E+01 -7.424330957E+01  3.204612573E+02  3.341897615E+02  3.300000000E-01  0.00000E+00  9.000E+00
       1     1     1     2   502     0  3.401499144E+01 -2.471897160E+01 -8.458540781E+01  9.446082424E+01  3.300000000E-01  0.00000E+00  9.000E+00
      -2     1     1     2     0   511 -9.224880117E+01  6.344331688E+01 -1.941390617E+02  2.241093036E+02  3.300000000E-01  0.00000E+00  9.000E+00
</event>
<event>
      8  10001  2.02935E-02  2.13753E+02 -1.00000E+00  1.12499E-01
      -2    -1     0     0     0   501  0.000000000E+00  0.000000000E+00  7.715949567E+01  7.715949567E+01  0.000000000E+00  0.00000E+00  9.000E+00
       2    -1     0     0   502     0  0.000000000E+00  0.000000000E+00 -2.457496238E+02  2.457496238E+02  0.000000000E+00  0.00000E+00  9.000E+00
      23     2     1     2     0     0  4.377299923E+00 -4.815406939E+01  2.345938580E+01  1.058469144E+02  9.118800000E+01  0.00000E+00  9.000E+00
     -13     1     3     3     0     0  2.207642688E+01  2.106101255E+01 -4.356359736E-01  3.051451826E+01  1.057000000E-01  0.00000E+00  9.000E+00
      13     1     3     3     0     0 -1.769912696E+01 -6.921508194E+01  2.389502177E+01  7.533239610E+01  1.057000000E-01  0.00000E+00  9.000E+00
      -2     1     1     2     0   511  8.466048867E-01  1.140379186E+00  3.426077450E+00  3.723454205E+00  3.300000000E-01  0.00000E+00  9.000E+00
       2     1     1     2   502     0 -1.023276755E+01  1.594191642E+01 -4.090200956E+00  1.938279843E+01  3.300000000E-01  0.00000E+00  9.000E+00
      21     1     1     2   511   501  5.008862744E+00  3.107177378E+01 -1.913853904E+02  1.939559525E+02  4.672030912E-06  0.00000E+00  9.000E+00
</event>
<event>
      8  10001  1.47540E-02  6.39947E+01 -1.00000E+00  1.36003E-01
       1    -1     0     0   501     0  0.000000000E+00  0.000000000E+00  1.366281217E+03  1.366281217E+03  0.000000000E+00  0.00000E+00  9.000E+00
       1    -1     0     0   502     0  0.000000000E+00  0.000000000E+00 -4.285020640E+01  4.285020640E+01  0.000000000E+00  0.00000E+00  9.000E+00
      23     2     1     2     0     0 -7.638097331E+01  1.585064819E+02  8.755006425E+02  8.976497002E+02  9.118800000E+01  0.00000E+00  9.000E+00
     -13     1     3     3     0     0 -8.825689000E+01  1.420974994E+02  6.477492686E+02  6.689993304E+02  1.057000000E-01  0.00000E+00  9.000E+00
      13     1     3     3     0     0  1.187591669E+01  1.640898246E+01  2.277513739E+02  2.286503698E+02  1.057000000E-01  0.00000E+00  9.000E+00
       1     1     1     2   511     0  1.139728565E+00  2.773450718E+01  1.881357853E+01  3.353448235E+01  3.300000000E-01  0.00000E+00  9.000E+00
       1     1     1     2   502     0  5.749552349E+01 -1.553243587E+02  3.962055581E+02  4.294302561E+02  3.300000000E-01  0.00000E+00  9.000E+00
      21     1     1     2   501   511  1.774572126E+01 -3.091663037E+01  3.291123137E+01  4.851698472E+01  8.259061849E-07  0.00000E+00  9.000E+00
</event>
<event>
      8  10001  1.08585E-02  2.56368E+02 -1.00000E+00  1.09655E-01
       2    -1     0     0   501     0  0.000000000E+00  0.000000000E+00  2.073119552E+03  2.073119552E+03  0.000000000E+00  0.00000E+00  9.000E+00
       2    -1     0     0   502     0  0.000000000E+00  0.000000000E+00 -2.042057507E+01  2.042057507E+01  0.000000000E+00  0.00000E+00  9.000E+00
      23     2     1     2     0     0 -2.467471856E+00  1.109966017E+00  5.152545501E+02  5.232684046E+02  9.118800000E+01  0.00000E+00  9.000E+00
     -13     1     3     3     0     0 -4.246167938E+01 -1.532932028E+01  3.276250109E+02  3.307206392E+02  1.057000000E-01  0.00000E+00  9.000E+00
      13     1     3     3     0     0  3.999420752E+01  1.643928629E+01  1.876295392E+02  1.925477653E+02  1.057000000E-01  0.00000E+00  9.000E+00
       2     1     1     2   511     0 -4.321984379E+01  3.171392303E+01  7.343759331E+01  9.092258697E+01  3.300000000E-01  0.00000E+00  9.000E+00
       2     1     1     2   502     0  3.923077098E+01 -4.603873913E+01  1.122305343E+02  1.274928258E+02  3.300000000E-01  0.00000E+00  9.000E+00
      21     1     1     2   501   511  6.456544662E+00  1.321485009E+01  1.351776299E+03  1.351856310E+03  2.157918644E-05  0.00000E+00  9.000E+00
</event>
<event>
      8  10001  1.31320E-02  2.27854E+02 -1.00000E+00  1.11482E-01
      -1    -1     0     0     0   501  0.000000000E+00  0.000000000E+00  8.208907993E+01  8.208907993E+01  0.000000000E+00  0.00000E+00  9.000E+00
       1    -1     0     0   502     0  0.000000000E+00  0.000000000E+00 -5.667776745E+02  5.667776745E+02  0.000000000E+00  0.00000E+00  9.000E+00
      23     2     1     2     0     0  3.388921998E+01  5.039336755E+01 -5.108978164E+02  5.225129672E+02  9.118800000E+01  0.00000E+00  9.000E+00
     -13     1     3     3     0     0  5.476313071E+01  3.854657558E-01 -2.841983256E+02  2.894267585E+02  1.057000000E-01  0.00000E+00  9.000E+00
      13     1     3     3     0     0 -2.087391073E+01  5.000790180E+01 -2.266994908E+02  2.330862087E+02  1.057000000E-01  0.00000E+00  9.000E+00
      -2     1     1     2     0   501  1.327100071E+00 -4.913134534E+01 -1.084580733E+01  5.033279970E+01  3.300000000E-01  0.00000E+00  9.000E+00
       2     1     1     2   511     0  8.359327792E+00  3.109541906E+00 -8.855183452E+00  1.257262049E+01  3.300000000E-01  0.00000E+00  9.000E+00
      21     1     1     2   502   511 -4.357564784E+01 -4.371564122E+00  4.591021263E+01  6.344836705E+01  3.234066955E-06  0.00000E+00  9.000E+00
</event>
<event>
      8  10001  1.49629E-02  2.18799E+01 -1.00000E+00  1.67453E-01
      -4    -1     0     0     0   501  0.000000000E+00  0.000000000E+00  3.225207391E+01  3.225207391E+01  0.000000000E+00  0.00000E+00  9.000E+00
       2    -1     0     0   502     0  0.000000000E+00  0.000000000E+00 -2.246763383E+03  2.246763383E+03  0.000000000E+00  0.00000E+00  9.000E+00
      23     2     1     2     0     0  5.217614597E+01 -7.073384937E+01 -2.149994107E+03  2.153721323E+03  9.118800000E+01  0.00000E+00  9.000E+00
     -13     1     3     3     0     0 -1.524304731E+01 -4.584964624E+01 -5.514721789E+02  5.535847865E+02  1.057000000E-01  0.00000E+00  9.000E+00
      13     1     3     3     0     0  6.741919328E+01 -2.488420313E+01 -1.598521928E+03  1.600136537E+03  1.057000000E-01  0.00000E+00  9.000E+00
      -4     1     1     2     0   512  4.190200314E-02  7.187105965E-01  5.183536424E-01  1.742696531E+00  1.500000000E+00  0.00000E+00  9.000E+00
       2     1     1     2   502     0 -5.948078031E+01  4.878351039E+01 -3.133773606E+01  8.306597808E+01  3.300000000E-01  0.00000E+00  9.000E+00
      21     1     1     2   512   501  7.262732333E+00  2.123162838E+01 -3.369781949E+01  4.048545867E+01  9.536743164E-07  0.00000E+00  9.000E+00
</event>
<event>
      8  10001  4.45868E-02  1.54754E+02 -1.00000E+00  1.17941E-01
      -2    -1     0     0     0   501  0.000000000E+00  0.000000000E+00  5.152781835E+02  5.152781835E+02  0.000000000E+00  0.00000E+00  9.000E+00
       2    -1     0     0   502     0  0.000000000E+00  0.000000000E+00 -2.609537024E+01  2.609537024E+01  0.000000000E+00  0.00000E+00  9.000E+00
      23     2     1     2     0     0  2.486101137E+01  6.244535275E+01  3.769744769E+02  3.936273613E+02  9.118800000E+01  0.00000E+00  9.000E+00
     -13     1     3     3     0     0 -1.387154108E+01  1.844016097E+01  1.637827969E+01  2.829696815E+01  1.057000000E-01  0.00000E+00  9.000E+00
      13     1     3     3     0     0  3.873255245E+01  4.400519178E+01  3.605961972E+02  3.653303931E+02  1.057000000E-01  0.00000E+00  9.000E+00
      -2     1     1     2     0   511 -3.755818659E-01  7.383217723E-01  5.538214591E+01  5.538932358E+01  3.300000000E-01  0.00000E+00  9.000E+00
       2     1     1     2   502     0 -9.940269948E+00 -2.687710110E+00  1.107986692E+01  1.512961015E+01  3.300000000E-01  0.00000E+00  9.000E+00
      21     1     1     2   511   501 -1.454515956E+01 -6.049596441E+01  4.574632353E+01  7.722725874E+01  1.507891493E-06  0.00000E+00  9.000E+00
</event>
<event>
      8  10001  4.44899E-02  7.49606E+00 -1.00000E+00  2.18759E-01
      -4    -1     0     0     0   501  0.000000000E+00  0.000000000E+00  4.213562673E+01  4.213562673E+01  0.000000000E+00  0.00000E+00  9.000E+00
      -1    -1     0     0     0   502  0.000000000E+00  0.000000000E+00 -5.465305885E+02  5.465305885E+02  0.000000000E+00  0.00000E+00  9.000E+00
      23     2     1     2     0     0 -1.090741231E+02 -1.567639637E+01 -1.160340039E+02  1.841794102E+02  9.118800000E+01  0.00000E+00  9.000E+00
     -13     1     3     3     0     0 -9.872915725E+01  7.788700471E+00 -4.523212918E+01  1.088763842E+02  1.057000000E-01  0.00000E+00  9.000E+00
      13     1     3     3     0     0 -1.034496582E+01 -2.346509684E+01 -7.080187476E+01  7.530302603E+01  1.057000000E-01  0.00000E+00  9.000E+00
      -4     1     1     2     0   501  9.949139474E+01  1.407086113E+01 -3.211318694E+02  3.364884163E+02  1.500000000E+00  0.00000E+00  9.000E+00
      -1     1     1     2     0   511  3.451382429E-01  1.724689677E-01 -9.826478641E+00  9.839585786E+00  3.300000000E-01  0.00000E+00  9.000E+00
      21     1     1     2   511   502  9.237590086E+00  1.433066273E+00 -5.740260976E+01  5.815880292E+01  1.348699152E-06  0.00000E+00  9.000E+00
</event>
<event>
      8  10001  1.06535E-02  4.21528E+02 -1.00000E+00  1.02575E-01
       1    -1     0     0   501     0  0.000000000E+00  0.000000000E+00  2.142291139E+02  2.142291139E+02  0.000000000E+00  0.00000E+00  9.000E+00
      -1    -1     0     0     0   502  0.000000000E+00  0.000000000E+00 -8.909776380E+02  8.909776380E+02  0.000000000E+00  0.00000E+00  9.000E+00
      23     2     1     2     0     0 -3.292005898E+02  1.142920453E+02 -4.487094949E+02  5.754052156E+02  9.118800000E+01  0.00000E+00  9.000E+00
     -13     1     3     3     0     0 -1.354245539E+02  3.526339331E+01 -2.517193009E+02  2.880033582E+02  1.057000000E-01  0.00000E+00  9.000E+00
      13     1     3     3     0     0 -1.937760358E+02  7.902865202E+01 -1.969901940E+02  2.874018573E+02  1.057000000E-01  0.00000E+00  9.000E+00
       2     1     1     2   501     0  1.467328883E+02 -2.857742244E+01 -1.860439341E+02  2.386622381E+02  3.300000000E-01  0.00000E+00  9.000E+00
      -2     1     1     2     0   512  4.325070271E+01 -8.868772040E+00 -1.097427260E+02  1.182913911E+02  3.300000000E-01  0.00000E+00  9.000E+00
      21     1     1     2   512   502  1.392169988E+02 -7.684585085E+01  6.774763085E+01  1.728479072E+02  5.223489356E-06  0.00000E+00  9.000E+00
</event>
<event>
      8  10001  1.06328E-02  1.51867E+02 -1.00000E+00  1.18275E-01
       1    -1     0     0   501     0  0.000000000E+00  0.000000000E+00  7.010718429E+01  7.010718429E+01  0.000000000E+00  0.00000E+00  9.000E+00
       2    -1     0     0   502     0  0.000000000E+00  0.000000000E+00 -2.058807112E+03  2.058807112E+03  0.000000000E+00  0.00000E+00  9.000E+00
      23     2     1     2     0     0 -8.354382567E+01 -3.320996450E+02 -9.984671866E+02  1.059491255E+03  9.118800000E+01  0.00000E+00  9.000E+00
     -13     1     3     3     0     0 -3.659175964E+01 -2.767244925E+02 -7.355143361E+02  7.866999119E+02  1.057000000E-01  0.00000E+00  9.000E+00
      13     1     3     3     0     0 -4.695206603E+01 -5.537515254E+01 -2.629528505E+02  2.727913429E+02  1.057000000E-01  0.00000E+00  9.000E+00
       2     1     1     2   501     0  4.734885420E+01  1.922086207E+02 -3.846362914E+02  4.325867005E+02  3.300000000E-01  0.00000E+00  9.000E+00
       1     1     1     2   511     0  1.251554392E+01  4.051592672E+01 -4.415501432E+02  4.435818042E+02  3.300000000E-01  0.00000E+00  9.000E+00
      21     1     1     2   502   511  2.367942755E+01  9.937509757E+01 -1.640463067E+02  1.932545369E+02  4.264961200E-06  0.00000E+00  9.000E+00
</event>
<event>
      8  10001  1.39665E-02  6.96642E+01 -1.00000E+00  1.34023E-01
       1    -1     0     0   501     0  0.000000000E+00  0.000000000E+00  6.537184952E+02  6.537184952E+02  0.000000000E+00  0.00000E+00  9.000E+00
      -4    -1     0     0     0   502  0.000000000E+00  0.000000000E+00 -6.598505391E+01  6.598505391E+01  0.000000000E+00  0.00000E+00  9.000E+00
      23     2     1     2     0     0  9.332291865E+00 -2.920068795E+01  5.257893595E+02  5.345179827E+02  9.118800000E+01  0.00000E+00  9.000E+00
     -13     1     3     3     0     0  6.690965548E+00 -2.935815109E+01  4.762026474E+01  5.634155519E+01  1.057000000E-01  0.00000E+00  9.000E+00
      13     1     3     3     0     0  2.641326317E+00  1.574631387E-01  4.781690948E+02  4.781764275E+02  1.057000000E-01  0.00000E+00  9.000E+00
       1     1     1     2   512     0 -1.922215349E+01  6.883102642E+00  3.726909162E+00  2.075733698E+01  3.300000000E-01  0.00000E+00  9.000E+00
      -4     1     1     2     0   502  1.022159685E+01 -1.340962549E+01 -4.877454600E+01  5.162853315E+01  1.500000000E+00  0.00000E+00  9.000E+00
      21     1     1     2   501   512 -3.317352292E-01  3.572721080E+01  1.069917186E+02  1.127996963E+02  1.907348633E-06  0.00000E+00  9.000E+00
</event>
<event>
      8  10001  1.08084E-02  1.31740E+02 -1.00000E+00  1.20860E-01
       2    -1     0     0   501     0  0.000000000E+00  0.000000000E+00  4.064039690E+01  4.064039690E+01  0.000000000E+00  0.00000E+00  9.000E+00
       1    -1     0     0   502     0  0.000000000E+00  0.000000000E+00 -1.592314320E+03  1.592314320E+03  0.000000000E+00  0.00000E+00  9.000E+00
      23     2     1     2     0     0  5.444911593E+00  9.416364840E+00 -9.441179186E+02  9.485737771E+02  9.118800000E+01  0.00000E+00  9.000E+00
     -13     1     3     3     0     0  2.564771439E+01  3.798982490E+01 -7.446509738E+02  7.460603970E+02  1.057000000E-01  0.00000E+00  9.000E+00
      13     1     3     3     0     0 -2.020280280E+01 -2.857346006E+01 -1.994669449E+02  2.025133801E+02  1.057000000E-01  0.00000E+00  9.000E+00
       1     1     1     2   511     0  3.548324975E+01  3.550735360E+01 -6.806000671E+01  8.457012821E+01  3.300000000E-01  0.00000E+00  9.000E+00
       2     1     1     2   502     0 -5.461340836E+01 -7.583172807E+01 -4.422523812E+01  1.033878907E+02  3.300000000E-01  0.00000E+00  9.000E+00
      21     1     1     2   501   511  1.368524701E+01  3.090800963E+01 -4.952707598E+02  4.964229210E+02  1.525878906E-05  0.00000E+00  9.000E+00
</event>
<event>
      8  10001  1.07349E-02  1.86849E+02 -1.00000E+00  1.14702E-01
       3    -1     0     0   501     0  0.000000000E+00  0.000000000E+00  5.196081380E+01  5.196081380E+01  0.000000000E+00  0.00000E+00  9.000E+00
      -3    -1     0     0     0   502  0.000000000E+00  0.000000000E+00 -1.222628474E+03  1.222628474E+03  0.000000000E+00  0.00000E+00  9.000E+00
      23     2     1     2     0     0 -1.475887908E+02  2.631531296E+00 -4.855301390E+02  5.156007597E+02  9.118800000E+01  0.00000E+00  9.000E+00
     -13     1     3     3     0     0  7.174267572E+00  1.280315537E+00 -1.516287633E+00  7.444435757E+00  1.057000000E-01  0.00000E+00  9.000E+00
      13     1     3     3     0     0 -1.547630584E+02  1.351215759E+00 -4.840138514E+02  5.081563239E+02  1.057000000E-01  0.00000E+00  9.000E+00
       4     1     1     2   501     0  1.537993405E+02  5.724812614E+01 -4.167916758E+02  4.479387638E+02  1.500000000E+00  0.00000E+00  9.000E+00
      -4     1     1     2     0   511 -3.737079806E+01 -2.021502894E+01 -2.554813865E+02  2.589946192E+02  1.500000000E+00  0.00000E+00  9.000E+00
      21     1     1     2   511   502  3.116024840E+01 -3.966462849E+01 -1.286445889E+01  5.205514514E+01  1.929570920E-06  0.00000E+00  9.000E+00
</event>
<event>
      8  10001  9.64839E-02  4.40638E+01 -1.00000E+00  1.45466E-01
       3    -1     0     0   501     0  0.000000000E+00  0.000000000E+00  3.671610838E+01  3.671610838E+01  0.000000000E+00  0.00000E+00  9.000E+00
       1    -1     0     0   502     0  0.000000000E+00  0.000000000E+00 -9.267975718E+02  9.267975718E+02  0.000000000E+00  0.00000E+00  9.000E+00
      23     2     1     2     0     0  7.093206291E+01 -6.451740867E+01 -1.512490028E+02  2.009611051E+02  9.118800000E+01  0.00000E+00  9.000E+00
     -13     1     3     3     0     0  8.598864852E+01 -5.293847587E+01 -8.483555575E+01  1.318848460E+02  1.057000000E-01  0.00000E+00  9.000E+00
      13     1     3     3     0     0 -1.505658561E+01 -1.157893280E+01 -6.641344707E+01  6.907625915E+01  1.057000000E-01  0.00000E+00  9.000E+00
       3     1     1     2   501     0 -7.591419046E+01  6.934851623E+01 -7.434383958E+02  7.505152093E+02  5.000000000E-01  0.00000E+00  9.000E+00
       1     1     1     2   512     0  3.012556829E-01 -1.416030923E+00 -2.476005264E+00  2.887109390E+00  3.300000000E-01  0.00000E+00  9.000E+00
      21     1     1     2   502   512  4.680871867E+00 -3.415076636E+00  7.081940504E+00  9.150256344E+00  1.124618188E-06  0.00000E+00  9.000E+00
</event>
<event>
      8  10001  1.06230E-02  9.50983E+02 -1.00000E+00  9.28009E-02
       2    -1     0     0   501     0  0.000000000E+00  0.000000000E+00  9.069227111E+02  9.069227111E+02  0.000000000E+00  0.00000E+00  9.000E+00
       1    -1     0     0   502     0  0.000000000E+00  0.000000000E+00 -3.255061513E+02  3.255061513E+02  0.000000000E+00  0.00000E+00  9.000E+00
      23     2     1     2     0     0 -3.260290123E+01  1.784602256E+01  5.282439216E+02  5.373437650E+02  9.118800000E+01  0.00000E+00  9.000E+00
     -13     1     3     3     0     0 -1.290353456E+01 -3.641069475E+01  1.596197539E+02  1.642276375E+02  1.057000000E-01  0.00000E+00  9.000E+00
      13     1     3     3     0     0 -1.969936667E+01  5.425671731E+01  3.686241677E+02  3.731161275E+02  1.057000000E-01  0.00000E+00  9.000E+00
       1     1     1     2   511     0  5.017865641E+01  1.141634010E+01  1.766800724E+02  1.840222466E+02  3.300000000E-01  0.00000E+00  9.000E+00
       2     1     1     2   502     0  1.564948332E+02  6.145927930E+01  1.138519668E+02  2.030523457E+02  3.300000000E-01  0.00000E+00  9.000E+00
      21     1     1     2   501   511 -1.740705884E+02 -9.072164196E+01 -2.373594009E+02  3.080105051E+02  6.031565972E-06  0.00000E+00  9.000E+00
</event>
<event>
      8  10001  1.12309E-02  2.00455E+02 -1.00000E+00  1.13540E-01
       2    -1     0     0   501     0  0.000000000E+00  0.000000000E+00  7.989042330E+01  7.989042330E+01  0.000000000E+00  0.00000E+00  9.000E+00
       3    -1     0     0   502     0  0.000000000E+00  0.000000000E+00 -6.892458242E+02  6.892458242E+02  0.000000000E+00  0.00000E+00  9.000E+00
      23     2     1     2     0     0 -1.013813285E+02 -3.061662481E+01 -3.968073395E+02  4.206980717E+02  9.118800000E+01  0.00000E+00  9.000E+00
     -13     1     3     3     0     0  1.450558790E+01 -3.993514281E+00 -1.694606751E+01  2.266143449E+01  1.057000000E-01  0.00000E+00  9.000E+00
      13     1     3     3     0     0 -1.158869164E+02 -2.662311053E+01 -3.798612720E+02  3.980366372E+02  1.057000000E-01  0.00000E+00  9.000E+00
       1     1     1     2   501     0  1.088158270E+02  8.377204304E+01 -2.141745817E+02  2.544199279E+02  3.300000000E-01  0.00000E+00  9.000E+00
       4     1     1     2   511     0 -1.585729952E+00 -1.886934557E+01 -3.727456948E+01  4.183551447E+01  1.500000000E+00  0.00000E+00  9.000E+00
      21     1     1     2   502   511 -5.848768498E+00 -3.428607266E+01  3.890108982E+01  5.218273336E+01  3.471426911E-06  0.00000E+00  9.000E+00
</event>
<event>
      8  10001  1.49455E-02  2.18994E+01 -1.00000E+00  1.67421E-01
       4    -1     0     0   501     0  0.000000000E+00  0.000000000E+00  3.704803907E+01  3.704803907E+01  0.000000000E+00  0.00000E+00  9.000E+00
      -2    -1     0     0     0   502  0.000000000E+00  0.000000000E+00 -4.484158471E+02  4.484158471E+02  0.000000000E+00  0.00000E+00  9.000E+00
      23     2     1     2     0     0  5.041597804E+01  4.474117112E+01 -6.781901371E+01  1.321295319E+02  9.118800000E+01  0.00000E+00  9.000E+00
     -13     1     3     3     0     0  7.210815726E+01  5.013573191E+01 -6.569262431E+01  1.096754759E+02  1.057000000E-01  0.00000E+00  9.000E+00
      13     1     3     3     0     0 -2.169217922E+01 -5.394560795E+00 -2.126389401E+00  2.245405597E+01  1.057000000E-01  0.00000E+00  9.000E+00
       4     1     1     2   501     0 -3.798278406E+01 -2.790492983E+01 -2.623762431E+02  2.665800441E+02  1.500000000E+00  0.00000E+00  9.000E+00
      -2     1     1     2     0   512 -2.765245268E+00 -3.551369420E+00 -5.892353881E+01  5.909611774E+01  3.300000000E-01  0.00000E+00  9.000E+00
      21     1     1     2   512   502 -9.667948718E+00 -1.328487186E+01 -2.224901246E+01  2.765819242E+01  6.307962682E-07  0.00000E+00  9.000E+00
</event>
<event>
      8  10001  1.17697E-02  6.51281E+01 -1.00000E+00  1.35588E-01
      -2    -1     0     0     0   501  0.000000000E+00  0.000000000E+00  1.910291324E+03  1.910291324E+03  0.000000000E+00  0.00000E+00  9.000E+00
       3    -1     0     0   502     0  0.000000000E+00  0.000000000E+00 -1.226065760E+01  1.226065760E+01  0.000000000E+00  0.00000E+00  9.000E+00
      23     2     1     2     0     0  8.059962658E+00  9.469864209E+00  2.351680757E+02  2.525349807E+02  9.118800000E+01  0.00000E+00  9.000E+00
     -13     1     3     3     0     0 -2.391523817E+01 -3.179616720E+01  1.054712004E+02  1.127258628E+02  1.057000000E-01  0.00000E+00  9.000E+00
      13     1     3     3     0     0  3.197520083E+01  4.126603140E+01  1.296968753E+02  1.398091179E+02  1.057000000E-01  0.00000E+00  9.000E+00
      -2     1     1     2     0   501  2.089139218E+01 -3.330352852E+01  1.226435006E+03  1.227064997E+03  3.300000000E-01  0.00000E+00  9.000E+00
       3     1     1     2   511     0 -1.085490594E+01  2.453053572E+01  4.102175789E+02  4.110940138E+02  5.000000000E-01  0.00000E+00  9.000E+00
      21     1     1     2   502   511 -1.809644889E+01 -6.968714100E-01  2.621000586E+01  3.185798957E+01  3.814697266E-06  0.00000E+00  9.000E+00
</event>
<event>
      8  10001  1.26123E-02  6.58341E+01 -1.00000E+00  1.35335E-01
       2    -1     0     0   501     0  0.000000000E+00  0.000000000E+00  7.048601055E+02  7.048601055E+02  0.000000000E+00  0.00000E+00  9.000E+00
       1    -1     0     0   502     0  0.000000000E+00  0.000000000E+00 -2.026905957E+01  2.026905957E+01  0.000000000E+00  0.00000E+00  9.000E+00
      23     2     1     2     0     0  5.583391166E+01 -6.199211293E+00  3.016881507E+02  3.201356705E+02  9.118800000E+01  0.00000E+00  9.000E+00
     -13     1     3     3     0     0  7.422957488E+01 -2.686954389E+01  2.361444248E+02  2.489903667E+02  1.057000000E-01  0.00000E+00  9.000E+00
      13     1     3     3     0     0 -1.839566322E+01  2.067033260E+01  6.554372594E+01  7.114530383E+01  1.057000000E-01  0.00000E+00  9.000E+00
       1     1     1     2   512     0 -2.187762807E+01 -2.070717260E+01  1.154826379E+02  1.193472503E+02  3.300000000E-01  0.00000E+00  9.000E+00
       2     1     1     2   502     0 -2.775812229E+01  3.194258516E+01  2.727702354E+02  2.760336073E+02  3.300000000E-01  0.00000E+00  9.000E+00
      21     1     1     2   501   512 -6.198161293E+00 -5.036201265E+00 -5.349978009E+00  9.612637062E+00  1.869724648E-06  0.00000E+00  9.000E+00
</event>
<event>
      8  10001  1.13016E-02  4.91373E+01 -1.00000E+00  1.42565E-01
       1    -1     0     0   501     0  0.000000000E+00  0.000000000E+00  1.234275177E+02  1.234275177E+02  0.000000000E+00  0.00000E+00  9.000E+00
      -3    -1     0     0     0   502  0.000000000E+00  0.000000000E+00 -2.409620718E+02  2.409620718E+02  0.000000000E+00  0.00000E+00  9.000E+00
      23     2     1     2     0     0  5.128116280E+01  3.199839431E+01  1.070535305E+01  1.099250237E+02  9.118800000E+01  0.00000E+00  9.000E+00
     -13     1     3     3     0     0  1.635259353E+01  6.034920701E+01  1.623777571E+01  6.459961792E+01  1.057000000E-01  0.00000E+00  9.000E+00
      13     1     3     3     0     0  3.492856926E+01 -2.835081270E+01 -5.532422659E+00  4.532540573E+01  1.057000000E-01  0.00000E+00  9.000E+00
       2     1     1     2   511     0  5.338225296E+01  1.076072541E+01 -6.105060865E+01  8.180919178E+01  3.300000000E-01  0.00000E+00  9.000E+00
      -4     1     1     2     0   502 -1.040574998E+02 -2.684176508E+01 -4.063574053E+00  1.075509472E+02  1.500000000E+00  0.00000E+00  9.000E+00
      21     1     1     2   501   511 -6.059159627E-01 -1.591735464E+01 -6.312572445E+01  6.510442689E+01  1.507891493E-06  0.00000E+00  9.000E+00
</event>
<event>
      8  10001  1.07442E-02  3.77284E+02 -1.00000E+00  1.04072E-01
       2    -1     0     0   501     0  0.000000000E+00  0.000000000E+00  3.821689735E+03  3.821689735E+03  0.000000000E+00  0.00000E+00  9.000E+00
       2    -1     0     0   502     0  0.000000000E+00  0.000000000E+00 -6.868220368E+01  6.868220368E+01  0.000000000E+00  0.00000E+00  9.000E+00
      23     2     1     2     0     0  3.833607238E+01 -4.445506849E+01  3.269861230E+01  1.132711709E+02  9.118800000E+01  0.00000E+00  9.000E+00
     -13     1     3     3     0     0  5.708790916E+01 -5.539729056E+01  4.164405783E+01  8.978935292E+01  1.057000000E-01  0.00000E+00  9.000E+00
      13     1     3     3     0     0 -1.875183677E+01  1.094222207E+01 -8.945445527E+00  2.348181795E+01  1.057000000E-01  0.00000E+00  9.000E+00
       2     1     1     2   511     0  3.629299080E+01  6.018125957E+01  3.018955567E+03  3.019773467E+03  3.300000000E-01  0.00000E+00  9.000E+00
       2     1     1     2   502     0 -5.339335706E+01 -6.818001637E+01  6.950089175E+02  7.003833732E+02  3.300000000E-01  0.00000E+00  9.000E+00
      21     1     1     2   501   511 -2.123570613E+01  5.245382530E+01  6.344433740E+00  5.694392718E+01  2.782075129E-05  0.00000E+00  9.000E+00
</event>
<event>
      8  10001  1.08527E-02  2.09192E+02 -1.00000E+00  1.12846E-01
       1    -1     0     0   501     0  0.000000000E+00  0.000000000E+00  2.922372396E+02  2.922372396E+02  0.000000000E+00  0.00000E+00  9.000E+00
       2    -1     0     0   502     0  0.000000000E+00  0.000000000E+00 -3.958091859E+02  3.958091859E+02  0.000000000E+00  0.00000E+00  9.000E+00
      23     2     1     2     0     0 -1.868006446E+02 -1.761419380E+02  2.858263835E+01  2.739574451E+02  9.118800000E+01  0.00000E+00  9.000E+00
     -13     1     3     3     0     0 -5.038422049E+01 -2.754032768E+01  4.297703260E+01  7.172221292E+01  1.057000000E-01  0.00000E+00  9.000E+00
      13     1     3     3     0     0 -1.364164241E+02 -1.486016103E+02 -1.439439426E+01  2.022352321E+02  1.057000000E-01  0.00000E+00  9.000E+00
       2     1     1     2   501     0  1.343849825E+02  1.565614991E+02 -1.811370752E+02  2.745570531E+02  3.300000000E-01  0.00000E+00  9.000E+00
       1     1     1     2   511     0 -3.420031657E+01  1.087719988E+01 -6.258916341E+00  3.643155314E+01  3.300000000E-01  0.00000E+00  9.000E+00
      21     1     1     2   502   511  8.661597867E+01  8.703239094E+00  5.524140683E+01  1.031003742E+02  4.523674479E-06  0.00000E+00  9.000E+00
</event>
<event>
      8  10001  1.21854E-02  7.44008E+01 -1.00000E+00  1.32530E-01
       1    -1     0     0   501     0  0.000000000E+00  0.000000000E+00  1.045792351E+03  1.045792351E+03  0.000000000E+00  0.00000E+00  9.000E+00
      -1    -1     0     0     0   502  0.000000000E+00  0.000000000E+00 -1.940844542E+01  1.940844542E+01  0.000000000E+00  0.00000E+00  9.000E+00
      23     2     1     2     0     0  1.477385056E+01 -1.013173111E+02  2.979877331E+02  3.280173846E+02  9.118800000E+01  0.00000E+00  9.000E+00
     -13     1     3     3     0     0  2.728272717E+01  6.570923662E+00  7.229652829E+01  7.755206906E+01  1.057000000E-01  0.00000E+00  9.000E+00
      13     1     3     3     0     0 -1.250887662E+01 -1.078882348E+02  2.256912048E+02  2.504653156E+02  1.057000000E-01  0.00000E+00  9.000E+00
       2     1     1     2   501     0  4.613177789E+00  6.659691099E+01  4.266741878E+02  4.318650268E+02  3.300000000E-01  0.00000E+00  9.000E+00
      -2     1     1     2     0   512 -4.471356270E+00 -2.912094131E+00  1.997058203E+01  2.067380869E+01  3.300000000E-01  0.00000E+00  9.000E+00
      21     1     1     2   512   502 -1.491567208E+01  3.763249428E+01  2.817514024E+02  2.846445761E+02  7.629394531E-06  0.00000E+00  9.000E+00
</event>
<event>
      8  10001  1.08637E-02  1.92727E+02 -1.00000E+00  1.14187E-01
      -2    -1     0     0     0   501  0.000000000E+00  0.000000000E+00  7.208184977E+01  7.208184977E+01  0.000000000E+00  0.00000E+00  9.000E+00
       2    -1     0     0   502     0  0.000000000E+00  0.000000000E+00 -1.068548616E+03  1.068548616E+03  0.000000000E+00  0.00000E+00  9.000E+00
      23     2     1     2     0     0  8.841254244E+01 -1.849299772E+01 -4.592043571E+01  1.363184008E+02  9.118800000E+01  0.00000E+00  9.000E+00
     -13     1     3     3     0     0  1.070490675E+02 -1.683110025E+01 -3.197746095E+01  1.129838837E+02  1.057000000E-01  0.00000E+00  9.000E+00
      13     1     3     3     0     0 -1.863652507E+01 -1.661897472E+00 -1.394297476E+01  2.333451708E+01  1.057000000E-01  0.00000E+00  9.000E+00
      -2     1     1     2     0   511 -3.088785238E+00  1.792608411E+01 -3.091878803E+02  3.097226813E+02  3.300000000E-01  0.00000E+00  9.000E+00
       2     1     1     2   502     0 -4.639084127E+01 -5.206680252E+01 -6.225908907E+02  6.264843080E+02  3.300000000E-01  0.00000E+00  9.000E+00
      21     1     1     2   511   501 -3.893291594E+01  5.263371613E+01 -1.876755920E+01  6.810507540E+01  3.207593929E-06  0.00000E+00  9.000E+00
</event>
<event>
      8  10001  1.05236E-02  6.68832E+02 -1.00000E+00  9.67867E-02
       1    -1     0     0   501     0  0.000000000E+00  0.000000000E+00  7.617923532E+02  7.617923532E+02  0.000000000E+00  0.00000E+00  9.000E+00
       2    -1     0     0   502     0  0.000000000E+00  0.000000000E+00 -5.024400077E+02  5.024400077E+02  0.000000000E+00  0.00000E+00  9.000E+00
      23     2     1     2     0     0  1.076219620E+01  6.651631117E+01  1.243682327E+02  1.682942458E+02  9.118800000E+01  0.00000E+00  9.000E+00
     -13     1     3     3     0     0  3.465164861E+01 -5.412595373E+00  2.388914870E+01  4.243507439E+01  1.057000000E-01  0.00000E+00  9.000E+00
      13     1     3     3     0     0 -2.388945241E+01  7.192890655E+01  1.004790840E+02  1.258591714E+02  1.057000000E-01  0.00000E+00  9.000E+00
       2     1     1     2   511     0 -2.438257073E+02  2.238516606E+01  2.726194820E+02  3.664335712E+02  3.300000000E-01  0.00000E+00  9.000E+00
       1     1     1     2   502     0  2.539800019E+02 -2.852888757E+02  1.240987506E+02  4.016169727E+02  3.300000000E-01  0.00000E+00  9.000E+00
      21     1     1     2   501   511 -2.091649078E+01  1.963873985E+02 -2.617341198E+02  3.278875712E+02  1.375408659E-05  0.00000E+00  9.000E+00
</event>
<event>
      8  10001  1.16231E-02  7.61542E+01 -1.00000E+00  1.32009E-01
       1    -1     0     0   501     0  0.000000000E+00  0.000000000E+00  1.071338847E+03  1.071338847E+03  0.000000000E+00  0.00000E+00  9.000E+00
       4    -1     0     0   502     0  0.000000000E+00  0.000000000E+00 -3.939437413E+01  3.939437413E+01  0.000000000E+00  0.00000E+00  9.000E+00
      23     2     1     2     0     0  1.151105753E+02  7.273002352E+01  2.528688037E+02  3.013270385E+02  9.118800000E+01  0.00000E+00  9.000E+00
     -13     1     3     3     0     0 -7.087369027E+00  4.902692917E+00  7.317559540E+01  7.368138253E+01  1.057000000E-01  0.00000E+00  9.000E+00
      13     1     3     3     0     0  1.221979443E+02  6.782733060E+01  1.796932083E+02  2.276456559E+02  1.057000000E-01  0.00000E+00  9.000E+00
       1     1     1     2   511     0 -1.999192560E+01 -8.641576778E+00  7.177937631E+01  7.501161044E+01  3.300000000E-01  0.00000E+00  9.000E+00
       4     1     1     2   502     0 -8.310328698E+01 -4.652854839E+01  7.067191242E+02  7.131095516E+02  1.500000000E+00  0.00000E+00  9.000E+00
      21     1     1     2   501   511 -1.201536268E+01 -1.755989836E+01  5.771684588E-01  2.128502041E+01  3.196403278E-06  0.00000E+00  9.000E+00
</event>
<event>
      8  10001  1.29908E-02  1.25351E+02 -1.00000E+00  1.21791E-01
       2    -1     0     0   501     0  0.000000000E+00  0.000000000E+00  2.889589869E+03  2.889589869E+03  0.000000000E+00  0.00000E+00  9.000E+00
      -2    -1     0     0     0   502  0.000000000E+00  0.000000000E+00 -1.817417025E+02  1.817417025E+02  0.000000000E+00  0.00000E+00  9.000E+00
      23     2     1     2     0     0 -3.952937416E+01  2.932282898E+02 -2.635384597E+01  3.107332907E+02  9.118800000E+01  0.00000E+00  9.000E+00
     -13     1     3     3     0     0 -6.944176052E+01  2.066763654E+02 -1.752998943E+01  2.187340619E+02  1.057000000E-01  0.00000E+00  9.000E+00
      13     1     3     3     0     0  2.991238636E+01  8.655192446E+01 -8.823856543E+00  9.199922882E+01  1.057000000E-01  0.00000E+00  9.000E+00
       1     1     1     2   501     0  5.668444506E+01 -2.865316803E+02  2.478730944E+03  2.495880753E+03  3.300000000E-01  0.00000E+00  9.000E+00
      -1     1     1     2     0   511  3.667618535E+00  1.425775171E+01  1.078003650E+01  1.824973963E+01  3.300000000E-01  0.00000E+00  9.000E+00
      21     1     1     2   511   502 -2.082268943E+01 -2.095436126E+01  2.446910321E+02  2.464677886E+02  1.849243110E-05  0.00000E+00  9.000E+00
</event>
<event>
      8  10001  1.16438E-02  4.86466E+01 -1.00000E+00  1.42827E-01
      21    -1     0     0   501   512  0.000000000E+00  0.000000000E+00  2.034883491E+02  2.034883491E+02  0.000000000E+00  0.00000E+00  9.000E+00
       1    -1     0     0   502     0  0.000000000E+00  0.000000000E+00 -2.763257903E+02  2.763257903E+02  0.000000000E+00  0.00000E+00  9.000E+00
      23     2     1     2     0     0  1.361384246E+02 -1.136950965E+01  6.424632804E+01  1.763683033E+02  9.118800000E+01  0.00000E+00  9.000E+00
     -13     1     3     3     0     0  9.972821878E+01  4.405535872E+00  8.542705084E+01  1.313884263E+02  1.057000000E-01  0.00000E+00  9.000E+00
      13     1     3     3     0     0  3.641020581E+01 -1.577504552E+01 -2.118072280E+01  4.497987704E+01  1.057000000E-01  0.00000E+00  9.000E+00
       1     1     1     2   501     0 -5.234294882E+01 -8.840159819E+00  2.937587345E+00  5.316644652E+01  3.300000000E-01  0.00000E+00  9.000E+00
       1     1     1     2   502     0 -1.323494132E+02  2.320604481E+01 -1.491850228E+02  2.007764120E+02  3.300000000E-01  0.00000E+00  9.000E+00
      -1     1     1     2     0   512  4.855393745E+01 -2.996375339E+00  9.163666164E+00  4.950297753E+01  3.300000000E-01  0.00000E+00  9.000E+00
</event>
<event>
      8  10001  1.07765E-02  1.22802E+02 -1.00000E+00  1.22180E-01
      21    -1     0     0   501   511  0.000000000E+00  0.000000000E+00  3.919938159E+02  3.919938159E+02  0.000000000E+00  0.00000E+00  9.000E+00
       3    -1     0     0   502     0  0.000000000E+00  0.000000000E+00 -3.132943549E+02  3.132943549E+02  0.000000000E+00  0.00000E+00  9.000E+00
      23     2     1     2     0     0  8.846763391E+01  1.559803345E+02  8.953579815E+01  2.202005846E+02  9.118800000E+01  0.00000E+00  9.000E+00
     -13     1     3     3     0     0  9.647801559E+00  6.876637314E+00  4.391380750E+01  4.548408378E+01  1.057000000E-01  0.00000E+00  9.000E+00
      13     1     3     3     0     0  7.881983235E+01  1.491036971E+02  4.562199065E+01  1.747165009E+02  1.057000000E-01  0.00000E+00  9.000E+00
       1     1     1     2   501     0 -1.370723961E+02 -7.684451076E+01  2.332347357E+01  1.588647662E+02  3.300000000E-01  0.00000E+00  9.000E+00
       3     1     1     2   502     0 -5.562037867E+01 -1.440776369E+02 -1.028121106E+02  1.855332102E+02  5.000000000E-01  0.00000E+00  9.000E+00
      -1     1     1     2     0   511  1.042251409E+02  6.494181322E+01  6.865229991E+01  1.406896097E+02  3.300000000E-01  0.00000E+00  9.000E+00
</event>
<event>
      8  10001  1.05332E-02  8.98849E+02 -1.00000E+00  9.34168E-02
       2    -1     0     0   501     0  0.000000000E+00  0.000000000E+00  3.350219369E+02  3.350219369E+02  0.000000000E+00  0.00000E+00  9.000E+00
       1    -1     0     0   502     0  0.000000000E+00  0.000000000E+00 -1.555597423E+03  1.555597423E+03  0.000000000E+00  0.00000E+00  9.000E+00
      23     2     1     2     0     0  1.003745251E+02 -5.788815421E+01  5.908527445E+01  1.588471110E+02  9.118800000E+01  0.00000E+00  9.000E+00
     -13     1     3     3     0     0  4.603144058E+01  2.049455641E+01  9.235270829E+00  5.122715847E+01  1.057000000E-01  0.00000E+00  9.000E+00
      13     1     3     3     0     0  5.434308451E+01 -7.838271062E+01  4.985000362E+01  1.076199526E+02  1.057000000E-01  0.00000E+00  9.000E+00
       1     1     1     2   501     0 -1.157245554E+02  1.712462923E+02 -7.581162891E+02  7.857848829E+02  3.300000000E-01  0.00000E+00  9.000E+00
       2     1     1     2   511     0  2.662845021E+02  1.563948497E+02 -4.860530887E+02  5.758597911E+02  3.300000000E-01  0.00000E+00  9.000E+00
      21     1     1     2   502   511 -2.509344718E+02 -2.697529879E+02 -3.549138283E+01  3.701275751E+02  1.324886702E-05  0.00000E+00  9.000E+00
</event>
<event>
      8  10001  7.67834E-02  4.22106E+01 -1.00000E+00  1.46643E-01
      -2    -1     0     0     0   501  0.000000000E+00  0.000000000E+00  1.577262853E+03  1.577262853E+03  0.000000000E+00  0.00000E+00  9.000E+00
       1    -1     0     0   502     0  0.000000000E+00  0.000000000E+00 -6.594334789E+00  6.594334789E+00  0.000000000E+00  0.00000E+00  9.000E+00
      23     2     1     2     0     0  1.025517411E+01 -1.767510984E+01  1.219029432E+03  1.222606063E+03  9.118800000E+01  0.00000E+00  9.000E+00
     -13     1     3     3     0     0  4.328889031E+01  1.609521458E+01  5.885830918E+02  5.903922857E+02  1.057000000E-01  0.00000E+00  9.000E+00
      13     1     3     3     0     0 -3.303371621E+01 -3.377032442E+01  6.304463403E+02  6.322137775E+02  1.057000000E-01  0.00000E+00  9.000E+00
      -2     1     1     2     0   501 -4.278738156E+00  1.465698895E+01  9.036334917E+00  1.774539867E+01  3.300000000E-01  0.00000E+00  9.000E+00
       1     1     1     2   512     0 -2.063222543E+00 -4.387723719E+00  1.443553627E+01  1.523163203E+01  3.300000000E-01  0.00000E+00  9.000E+00
      21     1     1     2   502   512 -3.913213409E+00  7.405844612E+00  3.281672152E+02  3.282740942E+02  8.529922400E-06  0.00000E+00  9.000E+00
</event>
<event>
      8  10001  1.27136E-01  6.46999E+02 -1.00000E+00  9.71806E-02
       2    -1     0     0   501     0  0.000000000E+00  0.000000000E+00  4.768390792E+02  4.768390792E+02  0.000000000E+00  0.00000E+00  9.000E+00
       1    -1     0     0   502     0  0.000000000E+00  0.000000000E+00 -5.622634828E+02  5.622634828E+02  0.000000000E+00  0.00000E+00  9.000E+00
      23     2     1     2     0     0  1.826276335E+02 -2.417615770E+01  2.769413179E+02  3.448899593E+02  9.118800000E+01  0.00000E+00  9.000E+00
     -13     1     3     3     0     0 -2.586778304E+00 -1.875804008E+01  1.564537020E+01  2.456306721E+01  1.057000000E-01  0.00000E+00  9.000E+00
      13     1     3     3     0     0  1.852144118E+02 -5.418117622E+00  2.612959477E+02  3.203268921E+02  1.057000000E-01  0.00000E+00  9.000E+00
       1     1     1     2   511     0 -6.803201720E+01 -1.745049405E+02  6.517047395E+01  1.983119492E+02  3.300000000E-01  0.00000E+00  9.000E+00
       2     1     1     2   502     0 -1.805427008E+01  7.780534729E+00 -1.180487019E+02  1.196749695E+02  3.300000000E-01  0.00000E+00  9.000E+00
      21     1     1     2   501   511 -9.654134619E+01  1.909005635E+02 -3.094874935E+02  3.762256840E+02  1.662787988E-05  0.00000E+00  9.000E+00
</event>
<event>
      8  10001  1.46263E-02  8.39123E+01 -1.00000E+00  1.29885E-01
      -1    -1     0     0     0   501  0.000000000E+00  0.000000000E+00  5.656520686E+01  5.656520686E+01  0.000000000E+00  0.00000E+00  9.000E+00
       2    -1     0     0   502     0  0.000000000E+00  0.000000000E+00 -2.271841069E+02  2.271841069E+02  0.000000000E+00  0.00000E+00  9.000E+00
      23     2     1     2     0     0 -3.591075753E+00 -3.788282032E+01 -4.396704027E+01  1.081496920E+02  9.118800000E+01  0.00000E+00  9.000E+00
     -13     1     3     3     0     0  2.656765361E+00 -5.941309816E+01 -7.653752299E-01  5.947748823E+01  1.057000000E-01  0.00000E+00  9.000E+00
      13     1     3     3     0     0 -6.247841114E+00  2.153027784E+01 -4.320166504E+01  4.867220374E+01  1.057000000E-01  0.00000E+00  9.000E+00
      -1     1     1     2     0   501 -1.178659008E+01  4.896812236E+01 -1.232130692E+02  1.331103679E+02  3.300000000E-01  0.00000E+00  9.000E+00
       2     1     1     2   511     0 -4.073887736E+00  1.619451985E+00 -1.564075801E+01  1.624688885E+01  3.300000000E-01  0.00000E+00  9.000E+00
      21     1     1     2   502   511  1.945155356E+01 -1.270475402E+01  1.220196750E+01  2.624236502E+01  7.152557373E-07  0.00000E+00  9.000E+00
</event>
<event>
      8  10001  1.06535E-02  2.39129E+02 -1.00000E+00  1.10726E-01
       2    -1     0     0   501     0  0.000000000E+00  0.000000000E+00  5.715043296E+02  5.715043296E+02  0.000000000E+00  0.00000E+00  9.000E+00
      -4    -1     0     0     0   502  0.000000000E+00  0.000000000E+00 -2.179261914E+02  2.179261914E+02  0.000000000E+00  0.00000E+00  9.000E+00
      23     2     1     2     0     0  2.100322025E+02 -2.132705382E+02  1.228504035E+02  3.361626415E+02  9.118800000E+01  0.00000E+00  9.000E+00
     -13     1     3     3     0     0  1.305366737E+02 -1.813911369E+02  6.476183200E+01  2.326728901E+02  1.057000000E-01  0.00000E+00  9.000E+00
      13     1     3     3     0     0  7.949552884E+01 -3.187940124E+01  5.808857154E+01  1.034897514E+02  1.057000000E-01  0.00000E+00  9.000E+00
       1     1     1     2   512     0  2.298188040E+01 -1.994921066E+01  4.845043248E+01  5.721617901E+01  3.300000000E-01  0.00000E+00  9.000E+00
      -3     1     1     2     0   502 -1.861661852E+02  1.080220018E+02  8.828774946E+01  2.326404481E+02  5.000000000E-01  0.00000E+00  9.000E+00
      21     1     1     2   501   512 -4.684789773E+01  1.251977470E+02  9.398955268E+01  1.634112524E+02  9.147322699E-06  0.00000E+00  9.000E+00
</event>
<event>
      8  10001  1.84557E-02  5.54018E+01 -1.00000E+00  1.39506E-01
       2    -1     0     0   501     0  0.000000000E+00  0.000000000E+00  1.802450134E+03  1.802450134E+03  0.000000000E+00  0.00000E+00  9.000E+00
      -2    -1     0     0     0   502  0.000000000E+00  0.000000000E+00 -6.352398235E+00  6.352398235E+00  0.000000000E+00  0.00000E+00  9.000E+00
      23     2     1     2     0     0  4.052343634E+01 -9.937962077E+00  1.399343531E+03  1.402932101E+03  9.118800000E+01  0.00000E+00  9.000E+00
     -13     1     3     3     0     0  1.504566338E+01  3.676179492E+01  8.739495908E+02  8.748518160E+02  1.057000000E-01  0.00000E+00  9.000E+00
      13     1     3     3     0     0  2.547777296E+01 -4.669975700E+01  5.253939402E+02  5.280802854E+02  1.057000000E-01  0.00000E+00  9.000E+00
       1     1     1     2   511     0 -1.685902189E+01 -2.578218907E+01  1.946161103E+02  1.970393036E+02  3.300000000E-01  0.00000E+00  9.000E+00
      -1     1     1     2     0   502 -2.590041249E+01  1.441298615E+01  1.399894648E+02  1.430934125E+02  3.300000000E-01  0.00000E+00  9.000E+00
      21     1     1     2   501   511  2.235998039E+00  2.130716500E+01  6.214862926E+01  6.573771433E+01  3.568322551E-06  0.00000E+00  9.000E+00
</event>
<event>
      8  10001  1.09762E-02  1.45783E+02 -1.00000E+00  1.19007E-01
      -3    -1     0     0     0   501  0.000000000E+00  0.000000000E+00  4.048077260E+01  4.048077260E+01  0.000000000E+00  0.00000E+00  9.000E+00
       1    -1     0     0   502     0  0.000000000E+00  0.000000000E+00 -9.857958488E+02  9.857958488E+02  0.000000000E+00  0.00000E+00  9.000E+00
      23     2     1     2     0     0  5.304810109E+01 -1.201483371E+02 -5.210667282E+02  5.450463380E+02  9.118800000E+01  0.00000E+00  9.000E+00
     -13     1     3     3     0     0  7.598684121E+01 -1.105571371E+02 -4.584182010E+02  4.776443643E+02  1.057000000E-01  0.00000E+00  9.000E+00
      13     1     3     3     0     0 -2.293874011E+01 -9.591200013E+00 -6.264852723E+01  6.740197365E+01  1.057000000E-01  0.00000E+00  9.000E+00
      -4     1     1     2     0   501  7.852461426E+00  1.044238969E+02 -2.554231628E+02  2.760602353E+02  1.500000000E+00  0.00000E+00  9.000E+00
       2     1     1     2   511     0 -2.392246653E+00 -3.735211194E+01 -5.941455205E+01  7.022179865E+01  3.300000000E-01  0.00000E+00  9.000E+00
      21     1     1     2   502   511 -5.850831587E+01  5.307655208E+01 -1.094106331E+02  1.349482495E+02  1.348699152E-06  0.00000E+00  9.000E+00
</event>
<event>
      8  10001  1.18092E-02  8.35888E+01 -1.00000E+00  1.29968E-01
       2    -1     0     0   501     0  0.000000000E+00  0.000000000E+00  1.372161475E+02  1.372161475E+02  0.000000000E+00  0.00000E+00  9.000E+00
       2    -1     0     0   502     0  0.000000000E+00  0.000000000E+00 -1.616650239E+02  1.616650239E+02  0.000000000E+00  0.00000E+00  9.000E+00
      23     2     1     2     0     0 -2.191466783E+01 -4.635346969E+01  6.079048571E+01  1.209943441E+02  9.118800000E+01  0.00000E+00  9.000E+00
     -13     1     3     3     0     0  1.540513300E+01 -1.048385093E+00  6.035176328E+01  6.229577624E+01  1.057000000E-01  0.00000E+00  9.000E+00
      13     1     3     3     0     0 -3.731980083E+01 -4.530508459E+01  4.387224291E-01  5.869856790E+01  1.057000000E-01  0.00000E+00  9.000E+00
       2     1     1     2   501     0  3.938325910E+01 -8.103246991E+00 -5.965627928E+01  7.194222867E+01  3.300000000E-01  0.00000E+00  9.000E+00
       2     1     1     2   512     0 -4.607870836E+00  1.780142372E+01 -5.449868016E+01  5.751815539E+01  3.300000000E-01  0.00000E+00  9.000E+00
      21     1     1     2   502   512 -1.286072044E+01  3.665529296E+01  2.891559732E+01  4.842644320E+01  0.000000000E+00  0.00000E+00  9.000E+00
</event>
<event>
      8  10001  1.12182E-02  2.17631E+02 -1.00000E+00  1.12211E-01
      -2    -1     0     0     0   501  0.000000000E+00  0.000000000E+00  1.242782479E+02  1.242782479E+02  0.000000000E+00  0.00000E+00  9.000E+00
      -1    -1     0     0     0   502  0.000000000E+00  0.000000000E+00 -9.327926640E+02  9.327926640E+02  0.000000000E+00  0.00000E+00  9.000E+00
      23     2     1     2     0     0 -1.538975686E+02 -7.854221859E+01 -5.312082219E+01  2.024608970E+02  9.118800000E+01  0.00000E+00  9.000E+00
     -13     1     3     3     0     0  8.640391163E+00  2.347997652E+00  6.833249860E+00  1.126383276E+01  1.057000000E-01  0.00000E+00  9.000E+00
      13     1     3     3     0     0 -1.625379597E+02 -8.089021624E+01 -5.995407205E+01  1.911970642E+02  1.057000000E-01  0.00000E+00  9.000E+00
      -1     1     1     2     0   511  4.432107344E+01  9.117986852E+00 -1.006737999E+02  1.103758041E+02  3.300000000E-01  0.00000E+00  9.000E+00
      -2     1     1     2     0   502  9.497034396E+01  7.086298114E+01 -3.391071996E+01  1.232516700E+02  3.300000000E-01  0.00000E+00  9.000E+00
      21     1     1     2   511   501  1.460615116E+01 -1.438749402E+00 -6.208090740E+02  6.209825408E+02  7.629394531E-06  0.00000E+00  9.000E+00
</event>
<event>
      8  10001  1.27946E-02  3.61815E+02 -1.00000E+00  1.04649E-01
       2    -1     0     0   501     0  0.000000000E+00  0.000000000E+00  8.699173987E+01  8.699173987E+01  0.000000000E+00  0.00000E+00  9.000E+00
       4    -1     0     0   502     0  0.000000000E+00  0.000000000E+00 -6.640821942E+02  6.640821942E+02  0.000000000E+00  0.00000E+00  9.000E+00
      23     2     1     2     0     0 -1.665181989E+01  8.305147319E+01  6.599975899E+00  1.246340296E+02  9.118800000E+01  0.00000E+00  9.000E+00
     -13     1     3     3     0     0 -1.277473929E+01  1.027878546E+02  3.766192745E-01  1.035793900E+02  1.057000000E-01  0.00000E+00  9.000E+00
      13     1     3     3     0     0 -3.877080602E+00 -1.973638145E+01  6.223356624E+00  2.105463955E+01  1.057000000E-01  0.00000E+00  9.000E+00
       2     1     1     2   511     0 -5.842735995E-01 -6.522094395E-01  6.282655467E-01  1.127107089E+00  3.300000000E-01  0.00000E+00  9.000E+00
       4     1     1     2   502     0  4.752781818E+01 -7.116875660E+01 -7.164029888E+01  1.116175069E+02  1.500000000E+00  0.00000E+00  9.000E+00
      21     1     1     2   501   511 -3.029172469E+01 -1.123050715E+01 -5.126783969E+02  5.136952905E+02  2.288818359E-05  0.00000E+00  9.000E+00
</event>
<event>
      8  10001  1.19293E-02  2.00352E+02 -1.00000E+00  1.13548E-01
       3    -1     0     0   501     0  0.000000000E+00  0.000000000E+00  2.308849400E+01  2.308849400E+01  0.000000000E+00  0.00000E+00  9.000E+00
       2    -1     0     0   502     0  0.000000000E+00  0.000000000E+00 -2.263673668E+03  2.263673668E+03  0.000000000E+00  0.00000E+00  9.000E+00
      23     2     1     2     0     0  1.822219114E+01 -1.355224030E+01 -1.807891355E+02  2.037539554E+02  9.118800000E+01  0.00000E+00  9.000E+00
     -13     1     3     3     0     0  3.647420813E+01  2.965550143E+01 -9.412360380E+01  1.052096982E+02  1.057000000E-01  0.00000E+00  9.000E+00
      13     1     3     3     0     0 -1.825201699E+01 -4.320774172E+01 -8.666553175E+01  9.854425724E+01  1.057000000E-01  0.00000E+00  9.000E+00
       4     1     1     2   511     0 -3.170824627E+01  1.472943659E+01 -2.267426390E+02  2.294272074E+02  1.500000000E+00  0.00000E+00  9.000E+00
       1     1     1     2   502     0  4.598686935E+01  9.380432392E+00 -4.442326814E+01  6.462445603E+01  3.300000000E-01  0.00000E+00  9.000E+00
      21     1     1     2   501   511 -3.250081422E+01 -1.055762869E+01 -1.788630131E+03  1.788956543E+03  8.357582970E-05  0.00000E+00  9.000E+00
</event>
<event>
      8  10001  1.05838E-02  3.29745E+02 -1.00000E+00  1.05951E-01
      -3    -1     0     0     0   501  0.000000000E+00  0.000000000E+00  1.032278874E+02  1.032278874E+02  0.000000000E+00  0.00000E+00  9.000E+00
       3    -1     0     0   502     0  0.000000000E+00  0.000000000E+00 -8.716921557E+02  8.716921557E+02  0.000000000E+00  0.00000E+00  9.000E+00
      23     2     1     2     0     0  3.661272101E+00 -7.444863618E+01 -1.086639760E+02  1.602470448E+02  9.118800000E+01  0.00000E+00  9.000E+00
     -13     1     3     3     0     0 -4.281892143E+01 -2.810964275E+01 -5.766498644E+01  7.712894322E+01  1.057000000E-01  0.00000E+00  9.000E+00
      13     1     3     3     0     0  4.648019353E+01 -4.633899343E+01 -5.099898959E+01  8.311810161E+01  1.057000000E-01  0.00000E+00  9.000E+00
      -4     1     1     2     0   501 -2.348830661E+01  1.251766029E+02 -2.552362839E+02  2.852519817E+02  1.500000000E+00  0.00000E+00  9.000E+00
       4     1     1     2   511     0  6.378656113E+01 -8.954339140E+01 -4.448738773E+02  4.582594910E+02  1.500000000E+00  0.00000E+00  9.000E+00
      21     1     1     2   502   511 -4.395952662E+01  3.881542473E+01  4.030986905E+01  7.116152557E+01  2.821006671E-06  0.00000E+00  9.000E+00
</event>
<event>
      8  10001  1.16901E-02  3.83725E+02 -1.00000E+00  1.03841E-01
       2    -1     0     0   501     0  0.000000000E+00  0.000000000E+00  1.536323822E+02  1.536323822E+02  0.000000000E+00  0.00000E+00  9.000E+00
       2    -1     0     0   502     0  0.000000000E+00  0.000000000E+00 -4.536858439E+02  4.536858439E+02  0.000000000E+00  0.00000E+00  9.000E+00
      23     2     1     2     0     0  2.715147673E+01  1.393570058E+02 -2.517202618E+02  3.030444180E+02  9.118800000E+01  0.00000E+00  9.000E+00
     -13     1     3     3     0     0  4.599717248E+01  1.068113550E+02 -2.343493443E+02  2.616181030E+02  1.057000000E-01  0.00000E+00  9.000E+00
      13     1     3     3     0     0 -1.884569575E+01  3.254565081E+01 -1.737091747E+01  4.142631508E+01  1.057000000E-01  0.00000E+00  9.000E+00
       2     1     1     2   501     0 -2.707197722E+01 -4.507255026E+01 -1.315088920E+01  5.419853802E+01  3.300000000E-01  0.00000E+00  9.000E+00
       2     1     1     2   512     0  1.072542069E+00  2.833587613E+00 -1.206569179E+02  1.206954030E+02  3.300000000E-01  0.00000E+00  9.000E+00
      21     1     1     2   502   512 -1.152041575E+00 -9.711804318E+01  8.547460718E+01  1.293798670E+02  2.132480600E-06  0.00000E+00  9.000E+00
</event>
<event>
      8  10001  1.05270E-02  8.37173E+02 -1.00000E+00  9.42052E-02
       2    -1     0     0   501     0  0.000000000E+00  0.000000000E+00  2.201269575E+03  2.201269575E+03  0.000000000E+00  0.00000E+00  9.000E+00
       1    -1     0     0   502     0  0.000000000E+00  0.000000000E+00 -7.245220200E+02  7.245220200E+02  0.000000000E+00  0.00000E+00  9.000E+00
      23     2     1     2     0     0  9.242539826E+02  7.383588293E+00  1.557610200E+03  1.813495169E+03  9.118800000E+01  0.00000E+00  9.000E+00
     -13     1     3     3     0     0  2.106358197E+01 -1.406014284E+01  4.216158489E+01  4.918305110E+01  1.057000000E-01  0.00000E+00  9.000E+00
      13     1     3     3     0     0  9.031904006E+02  2.144373114E+01  1.515448615E+03  1.764312118E+03  1.057000000E-01  0.00000E+00  9.000E+00
       1     1     1     2   511     0 -2.064847085E+01 -9.110846188E+01  1.292320077E+02  1.594620077E+02  3.300000000E-01  0.00000E+00  9.000E+00
       2     1     1     2   502     0 -5.970262659E+02 -8.319619240E+00 -6.249766088E+01  6.003462707E+02  3.300000000E-01  0.00000E+00  9.000E+00
      21     1     1     2   501   511 -3.065792458E+02  9.204449283E+01 -1.475969914E+02  3.524881481E+02  1.078959322E-05  0.00000E+00  9.000E+00
</event>
<event>
      8  10001  1.06049E-02  4.17152E+02 -1.00000E+00  1.02714E-01
      -3    -1     0     0     0   501  0.000000000E+00  0.000000000E+00  2.139329419E+02  2.139329419E+02  0.000000000E+00  0.00000E+00  9.000E+00
       3    -1     0     0   502     0  0.000000000E+00  0.000000000E+00 -1.226600054E+03  1.226600054E+03  0.000000000E+00  0.00000E+00  9.000E+00
      23     2     1     2     0     0 -2.597743467E+02  2.134608452E+02 -7.938069660E+02  8.668869558E+02  9.118800000E+01  0.00000E+00  9.000E+00
     -13     1     3     3     0     0 -7.987610862E+00 -9.021410090E+00 -3.504893540E+01  3.706247175E+01  1.057000000E-01  0.00000E+00  9.000E+00
      13     1     3     3     0     0 -2.517867358E+02  2.224822553E+02 -7.587580306E+02  8.298244841E+02  1.057000000E-01  0.00000E+00  9.000E+00
      -4     1     1     2     0   501  1.307302884E+02 -1.804203355E+02 -6.346911811E+01  2.316732283E+02  1.500000000E+00  0.00000E+00  9.000E+00
       4     1     1     2   511     0  3.791049059E+01 -1.657278102E+01 -2.233174446E+02  2.271228597E+02  1.500000000E+00  0.00000E+00  9.000E+00
      21     1     1     2   502   511  9.113356767E+01 -1.646772866E+01  6.792641696E+01  1.148499515E+02  3.438521648E-06  0.00000E+00  9.000E+00
</event>
<event>
      8  10001  1.65364E-02  3.66765E+02 -1.00000E+00  1.04461E-01
       3    -1     0     0   501     0  0.000000000E+00  0.000000000E+00  5.980091913E+02  5.980091913E+02  0.000000000E+00  0.00000E+00  9.000E+00
      -4    -1     0     0     0   502  0.000000000E+00  0.000000000E+00 -8.306269799E+01  8.306269799E+01  0.000000000E+00  0.00000E+00  9.000E+00
      23     2     1     2     0     0  1.505719782E+01  2.930724181E+01  3.982912206E+01  1.048200550E+02  9.118800000E+01  0.00000E+00  9.000E+00
     -13     1     3     3     0     0  3.156491145E+00  4.160047951E+01  6.327715802E+01  7.579296294E+01  1.057000000E-01  0.00000E+00  9.000E+00
      13     1     3     3     0     0  1.190070668E+01 -1.229323770E+01 -2.344803596E+01  2.902709209E+01  1.057000000E-01  0.00000E+00  9.000E+00
       3     1     1     2   501     0 -2.215636006E+01 -2.398725131E+01  2.503314580E+01  4.114852251E+01  5.000000000E-01  0.00000E+00  9.000E+00
      -4     1     1     2     0   512 -2.962634709E+00 -1.062520497E+01 -4.171386094E+01  4.317370009E+01  1.500000000E+00  0.00000E+00  9.000E+00
      21     1     1     2   512   502  1.006179694E+01  5.305214473E+00  4.917980864E+02  4.919296117E+02  9.344061824E-06  0.00000E+00  9.000E+00
</event>
<event>
      8  10001  1.06051E-02  1.94412E+02 -1.00000E+00  1.14043E-01
      -2    -1     0     0     0   501  0.000000000E+00  0.000000000E+00  4.853855637E+02  4.853855637E+02  0.000000000E+00  0.00000E+00  9.000E+00
      -3    -1     0     0     0   502  0.000000000E+00  0.000000000E+00 -2.416854779E+02  2.416854779E+02  0.000000000E+00  0.00000E+00  9.000E+00
      23     2     1     2     0     0 -3.170509310E+01  1.333162423E+02  2.323350185E+02  2.847336397E+02  9.118800000E+01  0.00000E+00  9.000E+00
     -13     1     3     3     0     0 -1.309503193E+01  5.379791763E-01 -3.397368677E+00  1.353966651E+01  1.057000000E-01  0.00000E+00  9.000E+00
      13     1     3     3     0     0 -1.861006117E+01  1.327782631E+02  2.357323872E+02  2.711939731E+02  1.057000000E-01  0.00000E+00  9.000E+00
      -1     1     1     2     0   511 -4.317954088E+00  6.162414800E+01  9.303736350E+01  1.116791845E+02  3.300000000E-01  0.00000E+00  9.000E+00
      -4     1     1     2     0   502  1.094581001E+02 -2.103657118E+02 -2.884761945E+01  2.388916984E+02  1.500000000E+00  0.00000E+00  9.000E+00
      21     1     1     2   511   501 -7.343505292E+01  1.542532155E+01 -5.282467675E+01  9.176651903E+01  1.348699152E-06  0.00000E+00  9.000E+00
</event>
<event>
      8  10001  2.27725E-02  5.78712E+02 -1.00000E+00  9.85286E-02
       2    -1     0     0   501     0  0.000000000E+00  0.000000000E+00  1.154472842E+03  1.154472842E+03  0.000000000E+00  0.00000E+00  9.000E+00
      -4    -1     0     0     0   502  0.000000000E+00  0.000000000E+00 -3.055560292E+02  3.055560292E+02  0.000000000E+00  0.00000E+00  9.000E+00
      23     2     1     2     0     0 -4.341634691E+01 -1.105408467E+01 -1.374258405E+02  1.709043152E+02  9.118800000E+01  0.00000E+00  9.000E+00
     -13     1     3     3     0     0 -2.460343133E+01 -5.004910909E+01 -5.811766914E+01  8.054760575E+01  1.057000000E-01  0.00000E+00  9.000E+00
      13     1     3     3     0     0 -1.881291559E+01  3.899502442E+01 -7.930817133E+01  9.035670941E+01  1.057000000E-01  0.00000E+00  9.000E+00
       2     1     1     2   501     0  1.840888449E+01  6.782242653E+00  1.106170543E+03  1.106344551E+03  3.300000000E-01  0.00000E+00  9.000E+00
      -4     1     1     2     0   511 -7.061550028E+00 -1.929646632E+00  2.923785325E+01  3.017765875E+01  1.500000000E+00  0.00000E+00  9.000E+00
      21     1     1     2   511   502  3.206901245E+01  6.201488649E+00 -1.490657437E+02  1.526023459E+02  6.031565972E-06  0.00000E+00  9.000E+00
</event>
<event>
      8  10001  1.10936E-02  7.74112E+01 -1.00000E+00  1.31646E-01
       1    -1     0     0   501     0  0.000000000E+00  0.000000000E+00  4.121232977E+02  4.121232977E+02  0.000000000E+00  0.00000E+00  9.000E+00
      -3    -1     0     0     0   502  0.000000000E+00  0.000000000E+00 -2.058998644E+03  2.058998644E+03  0.000000000E+00  0.00000E+00  9.000E+00
      23     2     1     2     0     0 -4.086020622E+02 -3.817814693E+02 -1.697314054E+03  1.789386204E+03  9.118800000E+01  0.00000E+00  9.000E+00
     -13     1     3     3     0     0 -3.648805663E+02 -3.637358564E+02 -1.604920150E+03  1.685589006E+03  1.057000000E-01  0.00000E+00  9.000E+00
      13     1     3     3     0     0 -4.372149589E+01 -1.804561287E+01 -9.239390471E+01  1.037971972E+02  1.057000000E-01  0.00000E+00  9.000E+00
       2     1     1     2   501     0  4.100325626E+02  4.145602679E+02  8.399275116E+01  5.891025456E+02  3.300000000E-01  0.00000E+00  9.000E+00
      -4     1     1     2     0   512 -2.454079092E+00 -4.823346389E+01 -5.035103472E+01  6.978514340E+01  1.500000000E+00  0.00000E+00  9.000E+00
      21     1     1     2   512   502  1.023578662E+00  1.545466529E+01  1.679699185E+01  2.284804866E+01  6.307962682E-07  0.00000E+00  9.000E+00
</event>
<event>
      8  10001  1.41160E-02  3.17049E+01 -1.00000E+00  1.55015E-01
      -2    -1     0     0     0   501  0.000000000E+00  0.000000000E+00  1.067026714E+03  1.067026714E+03  0.000000000E+00  0.00000E+00  9.000E+00
      -4    -1     0     0     0   502  0.000000000E+00  0.000000000E+00 -1.152493652E+02  1.152493652E+02  0.000000000E+00  0.00000E+00  9.000E+00
      23     2     1     2     0     0  5.621982363E+01  6.696758481E+01  1.040487280E+03  1.048128979E+03  9.118800000E+01  0.00000E+00  9.000E+00
     -13     1     3     3     0     0  4.506997186E+01  8.745927992E+01  7.051242228E+02  7.119554823E+02  1.057000000E-01  0.00000E+00  9.000E+00
      13     1     3     3     0     0  1.114985177E+01 -2.049169511E+01  3.353630567E+02  3.361734965E+02  1.057000000E-01  0.00000E+00  9.000E+00
      -2     1     1     2     0   501 -3.868035499E+01 -4.629414042E+01 -6.954032493E+01  9.206130018E+01  3.300000000E-01  0.00000E+00  9.000E+00
      -4     1     1     2     0   511 -1.224630571E+00  2.623201169E+00 -1.243863146E+01  1.285886686E+01  1.500000000E+00  0.00000E+00  9.000E+00
      21     1     1     2   511   502 -1.631483807E+01 -2.329664557E+01 -6.730974071E+00  2.922693360E+01  1.086048314E-06  0.00000E+00  9.000E+00
</event>
<event>
      8  10001  2.19476E-02  7.49514E+01 -1.00000E+00  1.32365E-01
       1    -1     0     0   501     0  0.000000000E+00  0.000000000E+00  1.658059164E+03  1.658059164E+03  0.000000000E+00  0.00000E+00  9.000E+00
       2    -1     0     0   502     0  0.000000000E+00  0.000000000E+00 -1.016120370E+01  1.016120370E+01  0.000000000E+00  0.00000E+00  9.000E+00
      23     2     1     2     0     0  3.245319454E+00 -6.292947711E+01  9.112470468E+02  9.179635520E+02  9.118800000E+01  0.00000E+00  9.000E+00
     -13     1     3     3     0     0 -1.784705202E+01 -7.820910786E+01  7.829913278E+02  7.870899646E+02  1.057000000E-01  0.00000E+00  9.000E+00
      13     1     3     3     0     0  2.109237147E+01  1.527963076E+01  1.282557190E+02  1.308735874E+02  1.057000000E-01  0.00000E+00  9.000E+00
       2     1     1     2   501     0  6.591276319E+00  5.131882596E+01  7.003608001E+02  7.022694825E+02  3.300000000E-01  0.00000E+00  9.000E+00
       1     1     1     2   512     0 -7.155656164E+00 -3.776201850E+00  3.012763059E+01  3.119689312E+01  3.300000000E-01  0.00000E+00  9.000E+00
      21     1     1     2   502   512 -2.680939609E+00  1.538685299E+01  6.162482754E+00  1.679044001E+01  1.486535539E-06  0.00000E+00  9.000E+00
</event>
<event>
      8  10001  1.15104E-02  4.84899E+02 -1.00000E+00  1.00746E-01
       2    -1     0     0   501     0  0.000000000E+00  0.000000000E+00  8.319742197E+02  8.319742197E+02  0.000000000E+00  0.00000E+00  9.000E+00
       2    -1     0     0   502     0  0.000000000E+00  0.000000000E+00 -8.214669000E+01  8.214669000E+01  0.000000000E+00  0.00000E+00  9.000E+00
      23     2     1     2     0     0  3.008607451E-01  3.903155468E+01  2.414673557E+01  1.020875554E+02  9.118800000E+01  0.00000E+00  9.000E+00
     -13     1     3     3     0     0 -3.126702165E+01  1.152820774E+01 -2.188078539E+01  3.986610287E+01  1.057000000E-01  0.00000E+00  9.000E+00
      13     1     3     3     0     0  3.156788239E+01  2.750334694E+01  4.602752097E+01  6.222145249E+01  1.057000000E-01  0.00000E+00  9.000E+00
       2     1     1     2   501     0 -1.094383627E+01  4.213007143E+01 -5.208346657E+00  4.384000737E+01  3.300000000E-01  0.00000E+00  9.000E+00
       2     1     1     2   511     0  2.185321098E+00  9.163316345E+00 -1.450506530E+01  1.729878071E+01  3.300000000E-01  0.00000E+00  9.000E+00
      21     1     1     2   502   511  8.457654429E+00 -9.032494245E+01  7.453942061E+02  7.508945663E+02  1.525878906E-05  0.00000E+00  9.000E+00
</event>
<event>
      8  10001  1.05089E-02  3.89932E+03 -1.00000E+00  7.96850E-02
       1    -1     0     0   501     0  0.000000000E+00  0.000000000E+00  3.186385049E+03  3.186385049E+03  0.000000000E+00  0.00000E+00  9.000E+00
       2    -1     0     0   502     0  0.000000000E+00  0.000000000E+00 -2.263838840E+03  2.263838840E+03  0.000000000E+00  0.00000E+00  9.000E+00
      23     2     1     2     0     0 -6.434914164E-02 -3.050941142E+01 -6.010259419E+01  1.133948919E+02  9.118800000E+01  0.00000E+00  9.000E+00
     -13     1     3     3     0     0  3.627422773E+01 -4.357188513E+01 -2.828050963E+01  6.335713984E+01  1.057000000E-01  0.00000E+00  9.000E+00
      13     1     3     3     0     0 -3.633857687E+01  1.306247371E+01 -3.182208456E+01  5.003775201E+01  1.057000000E-01  0.00000E+00  9.000E+00
       2     1     1     2   501     0 -1.801739353E+03  2.083653149E+02 -1.034068257E+03  2.087816579E+03  3.300000000E-01  0.00000E+00  9.000E+00
       1     1     1     2   512     0  2.530904450E+02 -2.174891851E+02 -3.088359476E+02  4.546823841E+02  3.300000000E-01  0.00000E+00  9.000E+00
      21     1     1     2   502   512  1.548713257E+03  3.963328153E+01  2.325553007E+03  2.794330034E+03  6.823937920E-05  0.00000E+00  9.000E+00
</event>
<event>
      8  10001  1.12364E-02  6.92035E+01 -1.00000E+00  1.34176E-01
      -3    -1     0     0     0   501  0.000000000E+00  0.000000000E+00  3.452485982E+02  3.452485982E+02  0.000000000E+00  0.00000E+00  9.000E+00
      -2    -1     0     0     0   502  0.000000000E+00  0.000000000E+00 -1.022931265E+02  1.022931265E+02  0.000000000E+00  0.00000E+00  9.000E+00
      23     2     1     2     0     0  4.791350421E+01  6.451680329E+01  2.363001171E+02  2.657275268E+02  9.118800000E+01  0.00000E+00  9.000E+00
     -13     1     3     3     0     0  1.204420573E+01  3.496499474E+01  2.081119738E+02  2.113722275E+02  1.057000000E-01  0.00000E+00  9.000E+00
      13     1     3     3     0     0  3.586929848E+01  2.955180854E+01  2.818814330E+01  5.435529925E+01  1.057000000E-01  0.00000E+00  9.000E+00
      -4     1     1     2     0   511  3.064384543E+00  1.045268495E+01  5.768220180E+01  5.872082663E+01  1.500000000E+00  0.00000E+00  9.000E+00
      -1     1     1     2     0   502 -4.939350260E+01 -8.387536326E+01 -3.275056918E+01  1.027010387E+02  3.300000000E-01  0.00000E+00  9.000E+00
      21     1     1     2   511   501 -1.584386159E+00  8.905875025E+00 -1.827627809E+01  2.039233263E+01  7.539457465E-07  0.00000E+00  9.000E+00
</event>
<event>
      8  10001  1.06226E-02  2.50537E+02 -1.00000E+00  1.10007E-01
       1    -1     0     0   501     0  0.000000000E+00  0.000000000E+00  3.207075681E+02  3.207075681E+02  0.000000000E+00  0.00000E+00  9.000E+00
       4    -1     0     0   502     0  0.000000000E+00  0.000000000E+00 -2.415675089E+02  2.415675089E+02  0.000000000E+00  0.00000E+00  9.000E+00
      23     2     1     2     0     0 -2.156896133E+01  4.826131570E+01  1.061590050E+02  1.495973274E+02  9.118800000E+01  0.00000E+00  9.000E+00
     -13     1     3     3     0     0  1.312233486E+00  4.454661939E+01  1.161112425E+02  1.243702339E+02  1.057000000E-01  0.00000E+00  9.000E+00
      13     1     3     3     0     0 -2.288119481E+01  3.714696310E+00 -9.952237538E+00  2.522709356E+01  1.057000000E-01  0.00000E+00  9.000E+00
       2     1     1     2   511     0 -4.430520052E+00  1.328232303E+02  9.612915104E+01  1.640200067E+02  3.300000000E-01  0.00000E+00  9.000E+00
       3     1     1     2   502     0  4.587585776E+01 -1.215584977E+02 -2.523042018E+01  1.323551540E+02  5.000000000E-01  0.00000E+00  9.000E+00
      21     1     1     2   501   511 -1.987637638E+01 -5.952604836E+01 -9.791767667E+01  1.163025889E+02  4.473129043E-06  0.00000E+00  9.000E+00
</event>
<event>
      8  10001  1.92579E-02  3.72174E+01 -1.00000E+00  1.50209E-01
       4    -1     0     0   501     0  0.000000000E+00  0.000000000E+00  2.116495792E+01  2.116495792E+01  0.000000000E+00  0.00000E+00  9.000E+00
       1    -1     0     0   502     0  0.000000000E+00  0.000000000E+00 -3.455795363E+02  3.455795363E+02  0.000000000E+00  0.00000E+00  9.000E+00
      23     2     1     2     0     0  1.855808837E+01  2.751176763E+01 -1.500220519E+02  1.786705555E+02  9.118800000E+01  0.00000E+00  9.000E+00
     -13     1     3     3     0     0  4.897200469E+01  6.519323390E-01 -1.152806057E+02  1.252529899E+02  1.057000000E-01  0.00000E+00  9.000E+00
      13     1     3     3     0     0 -3.041391632E+01  2.685983529E+01 -3.474144623E+01  5.341756562E+01  1.057000000E-01  0.00000E+00  9.000E+00
       4     1     1     2   501     0 -1.126891612E+01 -2.822826699E+01 -1.266449167E+02  1.302497925E+02  1.500000000E+00  0.00000E+00  9.000E+00
       1     1     1     2   511     0 -6.681004296E+00 -6.300185354E+00 -4.967856217E+01  5.052124892E+01  3.300000000E-01  0.00000E+00  9.000E+00
      21     1     1     2   502   511 -6.081679532E-01  7.016684714E+00  1.930952316E+00  7.302897335E+00  5.217534721E-07  0.00000E+00  9.000E+00
</event>
<event>
      8  10001  1.46424E-02  3.22841E+01 -1.00000E+00  1.54456E-01
       1    -1     0     0   501     0  0.000000000E+00  0.000000000E+00  5.123802615E+02  5.123802615E+02  0.000000000E+00  0.00000E+00  9.000E+00
      -4    -1     0     0     0   502  0.000000000E+00  0.000000000E+00 -4.257124547E+01  4.257124547E+01  0.000000000E+00  0.00000E+00  9.000E+00
      23     2     1     2     0     0 -3.923596521E+01 -5.641901731E+01  5.628769241E+01  1.273032684E+02  9.118800000E+01  0.00000E+00  9.000E+00
     -13     1     3     3     0     0 -4.069723550E+01 -7.933053299E+01  5.398333250E+01  1.042296014E+02  1.057000000E-01  0.00000E+00  9.000E+00
      13     1     3     3     0     0  1.461270296E+00  2.291151569E+01  2.304359912E+00  2.307366701E+01  1.057000000E-01  0.00000E+00  9.000E+00
       1     1     1     2   512     0  6.870317086E+00 -2.813718078E+00  7.413080106E+01  7.450236796E+01  3.300000000E-01  0.00000E+00  9.000E+00
      -4     1     1     2     0   502  3.551586289E+01  4.832247380E+01  3.359733107E+02  3.412869079E+02  1.500000000E+00  0.00000E+00  9.000E+00
      21     1     1     2   501   512 -3.150214768E+00  1.091026158E+01  3.417211902E+00  1.185896277E+01  5.591411304E-07  0.00000E+00  9.000E+00
</event>
<event>
      8  10001  1.47721E-02  1.33716E+02 -1.00000E+00  1.20584E-01
       2    -1     0     0   501     0  0.000000000E+00  0.000000000E+00  6.353639704E+01  6.353639704E+01  0.000000000E+00  0.00000E+00  9.000E+00
       1    -1     0     0   502     0  0.000000000E+00  0.000000000E+00 -7.093784628E+02  7.093784628E+02  0.000000000E+00  0.00000E+00  9.000E+00
      23     2     1     2     0     0  4.473479247E+01 -4.810615900E+01 -4.322884729E+01  1.204134078E+02  9.118800000E+01  0.00000E+00  9.000E+00
     -13     1     3     3     0     0  7.707696802E+00  1.671823459E+01  1.656517788E+01  2.476538408E+01  1.057000000E-01  0.00000E+00  9.000E+00
      13     1     3     3     0     0  3.702709567E+01 -6.482439359E+01 -5.979402518E+01  9.564802370E+01  1.057000000E-01  0.00000E+00  9.000E+00
       1     1     1     2   501     0 -2.043636517E+00 -7.837468512E+00 -4.608085799E+02  4.608798744E+02  3.300000000E-01  0.00000E+00  9.000E+00
       2     1     1     2   511     0 -5.514092873E+00  3.799397060E+01 -1.452081293E+02  1.501980583E+02  3.300000000E-01  0.00000E+00  9.000E+00
      21     1     1     2   502   511 -3.717706308E+01  1.794965692E+01  3.403490771E+00  4.142351931E+01  5.196212463E-07  0.00000E+00  9.000E+00
</event>
<event>
      8  10001  1.06051E-02  7.11257E+02 -1.00000E+00  9.60653E-02
      -2    -1     0     0     0   501  0.000000000E+00  0.000000000E+00  1.088166049E+03  1.088166049E+03  0.000000000E+00  0.00000E+00  9.000E+00
      -3    -1     0     0     0   502  0.000000000E+00  0.000000000E+00 -2.649390371E+02  2.649390371E+02  0.000000000E+00  0.00000E+00  9.000E+00
      23     2     1     2     0     0  3.860136348E+02 -2.020887333E+02  6.047462890E+02  7.509192419E+02  9.118800000E+01  0.00000E+00  9.000E+00
     -13     1     3     3     0     0  3.857704866E+02 -2.085659831E+02  5.935876250E+02  7.380141715E+02  1.057000000E-01  0.00000E+00  9.000E+00
      13     1     3     3     0     0  2.431481770E-01  6.477249760E+00  1.115866400E+01  1.290507033E+01  1.057000000E-01  0.00000E+00  9.000E+00
      -1     1     1     2     0   512  3.775605973E+01 -1.862509212E+01  7.539665896E+01  8.635496040E+01  3.300000000E-01  0.00000E+00  9.000E+00
      -4     1     1     2     0   502 -1.750023086E+02  2.913905268E+01  8.415321425E+01  1.963642174E+02  1.500000000E+00  0.00000E+00  9.000E+00
      21     1     1     2   512   501 -2.487673859E+02  1.915747728E+02  5.893084950E+01  3.194666663E+02  8.556536887E-06  0.00000E+00  9.000E+00
</event>
<event>
      8  10001  1.15580E-02  1.18416E+02 -1.00000E+00  1.22876E-01
      -1    -1     0     0     0   501  0.000000000E+00  0.000000000E+00  1.515874838E+02  1.515874838E+02  0.000000000E+00  0.00000E+00  9.000E+00
      -2    -1     0     0     0   502  0.000000000E+00  0.000000000E+00 -2.995758106E+02  2.995758106E+02  0.000000000E+00  0.00000E+00  9.000E+00
      23     2     1     2     0     0  6.516023211E+00 -1.412304755E+00  5.805519025E+01  1.083056306E+02  9.118800000E+01  0.00000E+00  9.000E+00
     -13     1     3     3     0     0  3.019986003E+01  1.782037479E+01 -7.624981780E+00  3.588521733E+01  1.057000000E-01  0.00000E+00  9.000E+00
      13     1     3     3     0     0 -2.368383682E+01 -1.923267954E+01  6.568017203E+01  7.242041328E+01  1.057000000E-01  0.00000E+00  9.000E+00
      -2     1     1     2     0   501 -2.637441397E+01  4.773332046E+01 -2.362907930E+02  2.425026337E+02  3.300000000E-01  0.00000E+00  9.000E+00
      -1     1     1     2     0   511 -2.843499758E+00 -3.633838013E+01 -2.196142747E+01  4.255557023E+01  3.300000000E-01  0.00000E+00  9.000E+00
      21     1     1     2   511   502  2.270189052E+01 -9.982635581E+00  5.220870340E+01  5.779945983E+01  6.743495762E-07  0.00000E+00  9.000E+00
</event>
<event>
      8  10001  1.08033E-02  1.99350E+02 -1.00000E+00  1.13630E-01
       1    -1     0     0   501     0  0.000000000E+00  0.000000000E+00  1.199860491E+02  1.199860491E+02  0.000000000E+00  0.00000E+00  9.000E+00
      -1    -1     0     0     0   502  0.000000000E+00  0.000000000E+00 -5.807010859E+02  5.807010859E+02  0.000000000E+00  0.00000E+00  9.000E+00
      23     2     1     2     0     0 -1.692362907E+02 -1.223617674E+02 -2.957685337E+02  3.733732731E+02  9.118800000E+01  0.00000E+00  9.000E+00
     -13     1     3     3     0     0 -8.919504361E+00 -3.360610440E+01 -1.448612210E+01  3.766678533E+01  1.057000000E-01  0.00000E+00  9.000E+00
      13     1     3     3     0     0 -1.603167864E+02 -8.875566295E+01 -2.812824116E+02  3.357064878E+02  1.057000000E-01  0.00000E+00  9.000E+00
       2     1     1     2   501     0  9.908249202E+01  1.266985141E+02 -1.101411216E+02  1.949385269E+02  3.300000000E-01  0.00000E+00  9.000E+00
      -2     1     1     2     0   512 -1.593491005E+01  1.624277956E+01 -3.487846069E+01  4.164571006E+01  3.300000000E-01  0.00000E+00  9.000E+00
      21     1     1     2   512   502  8.608870875E+01 -2.057952629E+01 -1.992692078E+01  9.072962497E+01  3.099441528E-06  0.00000E+00  9.000E+00
</event>
<event>
      8  10001  1.06182E-02  2.26840E+03 -1.00000E+00  8.42502E-02
       2    -1     0     0   501     0  0.000000000E+00  0.000000000E+00  2.122330826E+03  2.122330826E+03  0.000000000E+00  0.00000E+00  9.000E+00
       2    -1     0     0   502     0  0.000000000E+00  0.000000000E+00 -7.336690292E+02  7.336690292E+02  0.000000000E+00  0.00000E+00  9.000E+00
      23     2     1     2     0     0 -4.331661877E+01 -9.529698802E+01 -5.379952062E+02  5.556185190E+02  9.118800000E+01  0.00000E+00  9.000E+00
     -13     1     3     3     0     0 -5.383977560E+01 -5.769300142E+01 -4.749415050E+02  4.814526438E+02  1.057000000E-01  0.00000E+00  9.000E+00
      13     1     3     3     0     0  1.052315684E+01 -3.760398659E+01 -6.305370124E+01  7.416587524E+01  1.057000000E-01  0.00000E+00  9.000E+00
       2     1     1     2   501     0 -3.486254125E+01 -1.406351791E+02  1.201147995E+02  1.882055375E+02  3.300000000E-01  0.00000E+00  9.000E+00
       2     1     1     2   511     0 -4.624760637E+01 -1.719004529E+02 -6.739259686E+01  1.903430530E+02  3.300000000E-01  0.00000E+00  9.000E+00
      21     1     1     2   502   511  1.244267664E+02  4.078326201E+02  1.873934800E+03  1.921832746E+03  3.737624730E-05  0.00000E+00  9.000E+00
</event>
<event>
      8  10001  1.07810E-02  3.52768E+02 -1.00000E+00  1.05001E-01
       2    -1     0     0   501     0  0.000000000E+00  0.000000000E+00  3.333299790E+02  3.333299790E+02  0.000000000E+00  0.00000E+00  9.000E+00
      -2    -1     0     0     0   502  0.000000000E+00  0.000000000E+00 -1.965589254E+02  1.965589254E+02  0.000000000E+00  0.00000E+00  9.000E+00
      23     2     1     2     0     0 -3.401762471E+01 -2.266501250E+01  1.413269217E+02  1.730879884E+02  9.118800000E+01  0.00000E+00  9.000E+00
     -13     1     3     3     0     0 -4.998586396E+01 -4.842981100E+01  1.000115231E+02  1.218455954E+02  1.057000000E-01  0.00000E+00  9.000E+00
      13     1     3     3     0     0  1.596823925E+01  2.576479850E+01  4.131539855E+01  5.124239296E+01  1.057000000E-01  0.00000E+00  9.000E+00
       1     1     1     2   512     0  2.754106477E+01 -1.054337372E+01  1.327209997E+02  1.359582497E+02  3.300000000E-01  0.00000E+00  9.000E+00
      -1     1     1     2     0   502 -6.848427775E+01  2.294053766E+01 -1.019264480E+01  7.294082173E+01  3.300000000E-01  0.00000E+00  9.000E+00
      21     1     1     2   501   512  7.496083768E+01  1.026784855E+01 -1.270842231E+02  1.479018446E+02  1.348699152E-06  0.00000E+00  9.000E+00
</event>
<event>
      8  10001  1.10760E-02  8.09724E+01 -1.00000E+00  1.30657E-01
      -2    -1     0     0     0   501  0.000000000E+00  0.000000000E+00  2.528687128E+02  2.528687128E+02  0.000000000E+00  0.00000E+00  9.000E+00
       1    -1     0     0   502     0  0.000000000E+00  0.000000000E+00 -6.586710270E+02  6.586710270E+02  0.000000000E+00  0.00000E+00  9.000E+00
      23     2     1     2     0     0 -4.797781165E+01 -4.920817179E+01 -5.932773688E+02  6.041660386E+02  9.118800000E+01  0.00000E+00  9.000E+00
     -13     1     3     3     0     0 -3.365038781E+01 -3.745641430E+01 -1.151249329E+02  1.256546573E+02  1.057000000E-01  0.00000E+00  9.000E+00
      13     1     3     3     0     0 -1.432742384E+01 -1.175175749E+01 -4.781524359E+02  4.785113813E+02  1.057000000E-01  0.00000E+00  9.000E+00
      -2     1     1     2     0   501  5.772459215E+01  1.012356145E+02  1.685241223E+02  2.048933061E+02  3.300000000E-01  0.00000E+00  9.000E+00
       1     1     1     2   511     0 -2.311148766E+01 -5.917143924E+01 -1.502474165E+01  6.527826472E+01  3.300000000E-01  0.00000E+00  9.000E+00
      21     1     1     2   502   511  1.336470716E+01  7.143996500E+00  3.397567388E+01  3.720213031E+01  9.536743164E-07  0.00000E+00  9.000E+00
</event>
<event>
      8  10001  1.84908E-02  2.22363E+01 -1.00000E+00  1.66869E-01
       1    -1     0     0   501     0  0.000000000E+00  0.000000000E+00  1.425124315E+02  1.425124315E+02  0.000000000E+00  0.00000E+00  9.000E+00
       4    -1     0     0   502     0  0.000000000E+00  0.000000000E+00 -6.531193281E+01  6.531193281E+01  0.000000000E+00  0.00000E+00  9.000E+00
      23     2     1     2     0     0  4.871826554E+01 -4.992415109E+01  3.338606375E+01  1.195649232E+02  9.118800000E+01  0.00000E+00  9.000E+00
     -13     1     3     3     0     0  3.988120865E+01 -2.226348648E+01 -2.664567772E+01  5.287888943E+01  1.057000000E-01  0.00000E+00  9.000E+00
      13     1     3     3     0     0  8.837056885E+00 -2.766066461E+01  6.003174147E+01  6.668603375E+01  1.057000000E-01  0.00000E+00  9.000E+00
       1     1     1     2   501     0 -3.880567165E+01  3.995098429E+01  3.912575514E+01  6.806537235E+01  3.300000000E-01  0.00000E+00  9.000E+00
       4     1     1     2   512     0  1.418683424E+00  1.273730388E+00 -3.089578677E+00  3.928173642E+00  1.500000000E+00  0.00000E+00  9.000E+00
      21     1     1     2   502   512 -1.133127731E+01  8.699436410E+00  7.778258480E+00  1.626589513E+01  4.616955931E-07  0.00000E+00  9.000E+00
</event>
<event>
      8  10001  2.67153E-02  1.61026E+02 -1.00000E+00  1.17243E-01
       1    -1     0     0   501     0  0.000000000E+00  0.000000000E+00  1.459573929E+02  1.459573929E+02  0.000000000E+00  0.00000E+00  9.000E+00
      -3    -1     0     0     0   502  0.000000000E+00  0.000000000E+00 -1.299104185E+02  1.299104185E+02  0.000000000E+00  0.00000E+00  9.000E+00
      23     2     1     2     0     0  6.247465039E+01 -6.171428544E+01 -2.029454075E+01  1.282140971E+02  9.118800000E+01  0.00000E+00  9.000E+00
     -13     1     3     3     0     0  5.407021829E+01  8.160992142E+00  9.747721544E-01  5.469142210E+01  1.057000000E-01  0.00000E+00  9.000E+00
      13     1     3     3     0     0  8.404432107E+00 -6.987527759E+01 -2.126931290E+01  7.352267501E+01  1.057000000E-01  0.00000E+00  9.000E+00
       2     1     1     2   501     0 -1.030815360E+01  1.213431170E+01 -1.912487281E+01  2.488712942E+01  3.300000000E-01  0.00000E+00  9.000E+00
      -4     1     1     2     0   511  2.018688114E+01  1.445323065E+01 -3.355051341E-01  2.487506000E+01  1.500000000E+00  0.00000E+00  9.000E+00
      21     1     1     2   511   502 -7.235337793E+01  3.512674310E+01  5.580189304E+01  9.789152489E+01  9.536743164E-07  0.00000E+00  9.000E+00
</event>
<event>
      8  10001  1.44780E-02  7.25162E+02 -1.00000E+00  9.58405E-02
       2    -1     0     0   501     0  0.000000000E+00  0.000000000E+00  5.556950224E+03  5.556950224E+03  0.000000000E+00  0.00000E+00  9.000E+00
       2    -1     0     0   502     0  0.000000000E+00  0.000000000E+00 -1.163648664E+02  1.163648664E+02  0.000000000E+00  0.00000E+00  9.000E+00
      23     2     1     2     0     0  3.531845113E+01 -2.637106926E+00  5.428723089E+03  5.429604403E+03  9.118800000E+01  0.00000E+00  9.000E+00
     -13     1     3     3     0     0  3.202989218E+01  1.552870068E+00  5.849175101E+02  5.857958947E+02  1.057000000E-01  0.00000E+00  9.000E+00
      13     1     3     3     0     0  3.288558950E+00 -4.189976994E+00  4.843805579E+03  4.843808508E+03  1.057000000E-01  0.00000E+00  9.000E+00
       2     1     1     2   512     0 -1.498455900E+01 -3.579311705E+01  1.132544977E+02  1.197178950E+02  3.300000000E-01  0.00000E+00  9.000E+00
       2     1     1     2   502     0 -2.328457733E+01  3.061964457E+01 -2.230787117E+01  4.446891264E+01  3.300000000E-01  0.00000E+00  9.000E+00
      21     1     1     2   501   512  2.950685201E+00  7.810579408E+00 -7.908435806E+01  7.952387933E+01  1.148375948E-05  0.00000E+00  9.000E+00
</event>
<event>
      8  10001  1.15560E-02  2.94539E+02 -1.00000E+00  1.07581E-01
       2    -1     0     0   501     0  0.000000000E+00  0.000000000E+00  4.105319397E+03  4.105319397E+03  0.000000000E+00  0.00000E+00  9.000E+00
       4    -1     0     0   502     0  0.000000000E+00  0.000000000E+00 -1.656419000E+01  1.656419000E+01  0.000000000E+00  0.00000E+00  9.000E+00
      23     2     1     2     0     0 -1.780323003E+01 -1.099931688E+02  4.278551283E+02  4.514318491E+02  9.118800000E+01  0.00000E+00  9.000E+00
     -13     1     3     3     0     0  3.734240192E+01 -3.831601027E+01  1.537676438E+02  1.628099232E+02  1.057000000E-01  0.00000E+00  9.000E+00
      13     1     3     3     0     0 -5.514563196E+01 -7.167715853E+01  2.740874845E+02  2.886219259E+02  1.057000000E-01  0.00000E+00  9.000E+00
       2     1     1     2   501     0  4.825780991E+00  6.223843025E+01  9.876193228E+02  9.895902920E+02  3.300000000E-01  0.00000E+00  9.000E+00
       4     1     1     2   511     0  2.797212676E+01  4.237481230E+01  1.675694802E+02  1.750995297E+02  1.500000000E+00  0.00000E+00  9.000E+00
      21     1     1     2   502   511 -1.499467772E+01  5.379926245E+00  2.505711275E+03  2.505761916E+03  3.051757813E-05  0.00000E+00  9.000E+00
</event>
<event>
      8  10001  1.13295E-02  1.09096E+02 -1.00000E+00  1.24473E-01
      -2    -1     0     0     0   501  0.000000000E+00  0.000000000E+00  7.477215615E+01  7.477215615E+01  0.000000000E+00  0.00000E+00  9.000E+00
      -3    -1     0     0     0   502  0.000000000E+00  0.000000000E+00 -3.606300408E+02  3.606300408E+02  0.000000000E+00  0.00000E+00  9.000E+00
      23     2     1     2     0     0  3.940952475E+01  4.012162097E+01 -8.835963153E+01  1.388723548E+02  9.118800000E+01  0.00000E+00  9.000E+00
     -13     1     3     3     0     0  6.622925770E+01  1.806409886E+01 -7.497802364E+01  1.016579630E+02  1.057000000E-01  0.00000E+00  9.000E+00
      13     1     3     3     0     0 -2.681973294E+01  2.205752211E+01 -1.338160789E+01  3.721439183E+01  1.057000000E-01  0.00000E+00  9.000E+00
      -1     1     1     2     0   512  3.367014201E+01 -3.391860976E+01 -3.351583668E+01  5.837440158E+01  3.300000000E-01  0.00000E+00  9.000E+00
      -4     1     1     2     0   502 -7.732022888E+01 -8.731957403E+00 -3.823092028E+00  7.792002892E+01  1.500000000E+00  0.00000E+00  9.000E+00
      21     1     1     2   512   501  4.240562119E+00  2.528946198E+00 -1.601593245E+02  1.602354117E+02  5.394796609E-06  0.00000E+00  9.000E+00
</event>
<event>
      8  10001  1.55859E-02  5.22003E+01 -1.00000E+00  1.41006E-01
      -1    -1     0     0     0   501  0.000000000E+00  0.000000000E+00  3.163966423E+01  3.163966423E+01  0.000000000E+00  0.00000E+00  9.000E+00
       1    -1     0     0   502     0  0.000000000E+00  0.000000000E+00 -4.670012706E+02  4.670012706E+02  0.000000000E+00  0.00000E+00  9.000E+00
      23     2     1     2     0     0 -7.454133423E+00 -2.542681110E+01 -3.690493031E+02  3.810705004E+02  9.118800000E+01  0.00000E+00  9.000E+00
     -13     1     3     3     0     0  3.122040801E+01  6.805989958E+00 -2.468026196E+02  2.488625717E+02  1.057000000E-01  0.00000E+00  9.000E+00
      13     1     3     3     0     0 -3.867454143E+01 -3.223280105E+01 -1.222466835E+02  1.322079287E+02  1.057000000E-01  0.00000E+00  9.000E+00
      -2     1     1     2     0   501  1.377369163E+01  4.235613166E+01 -3.174134041E+01  5.469349195E+01  3.300000000E-01  0.00000E+00  9.000E+00
       2     1     1     2   511     0 -7.152476251E+00 -2.957579394E+01 -3.898600981E+01  4.945607510E+01  3.300000000E-01  0.00000E+00  9.000E+00
      21     1     1     2   502   511  8.329180463E-01  1.264647338E+01  4.415046941E+00  1.342086736E+01  4.339283639E-07  0.00000E+00  9.000E+00
</event>
<event>
      8  10001  1.13626E-02  2.07121E+02 -1.00000E+00  1.13007E-01
      -2    -1     0     0     0   501  0.000000000E+00  0.000000000E+00  1.646942234E+02  1.646942234E+02  0.000000000E+00  0.00000E+00  9.000E+00
       2    -1     0     0   502     0  0.000000000E+00  0.000000000E+00 -2.183530238E+02  2.183530238E+02  0.000000000E+00  0.00000E+00  9.000E+00
      23     2     1     2     0     0 -5.175321453E+01 -5.175069565E+01 -3.311526383E+01  1.215253132E+02  9.118800000E+01  0.00000E+00  9.000E+00
     -13     1     3     3     0     0  2.238977945E+01  1.128195705E+00  4.720996553E+00  2.291012942E+01  1.057000000E-01  0.00000E+00  9.000E+00
      13     1     3     3     0     0 -7.414299397E+01 -5.287889136E+01 -3.783626038E+01  9.861518381E+01  1.057000000E-01  0.00000E+00  9.000E+00
      -2     1     1     2     0   512 -2.521968823E-01  4.924928984E+01  6.739405541E+01  8.347229336E+01  3.300000000E-01  0.00000E+00  9.000E+00
       2     1     1     2   502     0 -2.576299061E+00 -3.544508360E+01  2.743392372E+01  4.489677426E+01  3.300000000E-01  0.00000E+00  9.000E+00
      21     1     1     2   512   501  5.458171047E+01  3.794648941E+01 -1.153715157E+02  1.331528663E+02  3.303624740E-06  0.00000E+00  9.000E+00
</event>
<event>
      8  10001  1.10036E-02  9.36403E+01 -1.00000E+00  1.27565E-01
      -2    -1     0     0     0   501  0.000000000E+00  0.000000000E+00  3.268185142E+02  3.268185142E+02  0.000000000E+00  0.00000E+00  9.000E+00
      -1    -1     0     0     0   502  0.000000000E+00  0.000000000E+00 -1.985659969E+02  1.985659969E+02  0.000000000E+00  0.00000E+00  9.000E+00
      23     2     1     2     0     0 -5.124560328E+01 -1.825490786E+02 -5.537184369E+00  2.104666000E+02  9.118800000E+01  0.00000E+00  9.000E+00
     -13     1     3     3     0     0 -1.332078656E+01 -6.647185000E+01 -4.588037108E+01  8.185945162E+01  1.057000000E-01  0.00000E+00  9.000E+00
      13     1     3     3     0     0 -3.792481672E+01 -1.160772286E+02  4.034318671E+01  1.286071484E+02  1.057000000E-01  0.00000E+00  9.000E+00
      -2     1     1     2     0   501  9.232529144E+01  1.616537614E+02  6.120211509E+01  1.959635319E+02  3.300000000E-01  0.00000E+00  9.000E+00
      -1     1     1     2     0   511 -4.101549289E+01 -1.944746554E+01  1.340880476E+01  4.733264749E+01  3.300000000E-01  0.00000E+00  9.000E+00
      21     1     1     2   511   502 -6.419526527E-02  4.034278275E+01  5.917878180E+01  7.162173174E+01  2.023048729E-06  0.00000E+00  9.000E+00
</event>
<event>
      8  10001  1.08381E-02  9.93156E+01 -1.00000E+00  1.26356E-01
       3    -1     0     0   501     0  0.000000000E+00  0.000000000E+00  1.010339835E+02  1.010339835E+02  0.000000000E+00  0.00000E+00  9.000E+00
       2    -1     0     0   502     0  0.000000000E+00  0.000000000E+00 -2.385547520E+03  2.385547520E+03  0.000000000E+00  0.00000E+00  9.000E+00
      23     2     1     2     0     0  1.525088002E+02 -7.941847913E+01 -2.412474350E+01  1.961210941E+02  9.118800000E+01  0.00000E+00  9.000E+00
     -13     1     3     3     0     0  6.088135573E+01 -7.419993710E+01  1.351395118E+01  9.692681873E+01  1.057000000E-01  0.00000E+00  9.000E+00
      13     1     3     3     0     0  9.162744442E+01 -5.218542032E+00 -3.763869468E+01  9.919427535E+01  1.057000000E-01  0.00000E+00  9.000E+00
       4     1     1     2   512     0 -1.467205898E+01  2.057799601E+01 -1.443549090E+00  2.535856992E+01  1.500000000E+00  0.00000E+00  9.000E+00
       1     1     1     2   502     0 -1.443058624E+02  6.048812126E+01 -2.015307987E+03  2.021373143E+03  3.300000000E-01  0.00000E+00  9.000E+00
      21     1     1     2   501   512  6.469121245E+00 -1.647638141E+00 -2.436372569E+02  2.437286959E+02  2.697398305E-06  0.00000E+00  9.000E+00
</event>
<event>
      8  10001  1.21480E-01  2.43398E+01 -1.00000E+00  1.63674E-01
      -3    -1     0     0     0   501  0.000000000E+00  0.000000000E+00  2.891702367E+01  2.891702367E+01  0.000000000E+00  0.00000E+00  9.000E+00
       1    -1     0     0   502     0  0.000000000E+00  0.000000000E+00 -3.892686174E+02  3.892686174E+02  0.000000000E+00  0.00000E+00  9.000E+00
      23     2     1     2     0     0  2.681344350E+01  1.606964390E+01 -3.174143464E+02  3.317292765E+02  9.118800000E+01  0.00000E+00  9.000E+00
     -13     1     3     3     0     0  3.524158221E+01  3.252589465E+01 -3.065618181E+02  3.102902873E+02  1.057000000E-01  0.00000E+00  9.000E+00
      13     1     3     3     0     0 -8.428138713E+00 -1.645625074E+01 -1.085252833E+01  2.143898912E+01  1.057000000E-01  0.00000E+00  9.000E+00
      -3     1     1     2     0   501 -3.033056124E+01 -1.015790160E+01 -5.933838588E+01  6.741231304E+01  5.000000000E-01  0.00000E+00  9.000E+00
       1     1     1     2   511     0  1.758214901E+00 -1.088817412E+00  2.649374450E-01  2.110908535E+00  3.300000000E-01  0.00000E+00  9.000E+00
      21     1     1     2   502   511  1.758902840E+00 -4.822924896E+00  1.613620117E+01  1.693314300E+01  1.092571186E-06  0.00000E+00  9.000E+00
</event>
<event>
      8  10001  1.06509E-02  2.06953E+02 -1.00000E+00  1.13020E-01
       4    -1     0     0   501     0  0.000000000E+00  0.000000000E+00  1.112196745E+02  1.112196745E+02  0.000000000E+00  0.00000E+00  9.000E+00
       2    -1     0     0   502     0  0.000000000E+00  0.000000000E+00 -1.109395305E+03  1.109395305E+03  0.000000000E+00  0.00000E+00  9.000E+00
      23     2     1     2     0     0 -1.242023000E+02 -1.053933104E+02 -1.351227403E+02  2.304503580E+02  9.118800000E+01  0.00000E+00  9.000E+00
     -13     1     3     3     0     0 -2.519046353E+01 -3.885389768E+01 -9.308619759E+01  1.039674765E+02  1.057000000E-01  0.00000E+00  9.000E+00
      13     1     3     3     0     0 -9.901183652E+01 -6.653941274E+01 -4.203654272E+01  1.264828815E+02  1.057000000E-01  0.00000E+00  9.000E+00
       4     1     1     2   512     0  2.145332761E+01 -6.783412599E+01 -1.402127447E+02  1.572373292E+02  1.500000000E+00  0.00000E+00  9.000E+00
       2     1     1     2   502     0  3.329805906E+01  1.865180090E+02 -7.368693285E+02  7.608378570E+02  3.300000000E-01  0.00000E+00  9.000E+00
      21     1     1     2   501   512  6.945091338E+01 -1.329057260E+01  1.402918318E+01  7.208943521E+01  3.434386323E-06  0.00000E+00  9.000E+00
</event>
<event>
      8  10001  1.59200E-02  1.35245E+02 -1.00000E+00  1.20374E-01
       2    -1     0     0   501     0  0.000000000E+00  0.000000000E+00  1.804458323E+03  1.804458323E+03  0.000000000E+00  0.00000E+00  9.000E+00
      -4    -1     0     0     0   502  0.000000000E+00  0.000000000E+00 -7.778339026E+00  7.778339026E+00  0.000000000E+00  0.00000E+00  9.000E+00
      23     2     1     2     0     0  4.939447930E+01  9.625699396E+00  4.878159078E+02  4.988106654E+02  9.118800000E+01  0.00000E+00  9.000E+00
     -13     1     3     3     0     0  6.576507403E+01  9.140712609E+00  4.697762070E+02  4.744452481E+02  1.057000000E-01  0.00000E+00  9.000E+00
      13     1     3     3     0     0 -1.637059473E+01  4.849867868E-01  1.803970080E+01  2.436541733E+01  1.057000000E-01  0.00000E+00  9.000E+00
       2     1     1     2   501     0 -1.556030533E+01 -1.849115932E+01  2.707562000E+02  2.718328067E+02  3.300000000E-01  0.00000E+00  9.000E+00
      -4     1     1     2     0   511  2.278047213E+00  1.264622938E+01  2.812392794E+01  3.095677534E+01  1.500000000E+00  0.00000E+00  9.000E+00
      21     1     1     2   511   502 -3.611222119E+01 -3.780769450E+00  1.009983948E+03  1.010636415E+03  2.157918644E-05  0.00000E+00  9.000E+00
</event>
<event>
      8  10001  1.06083E-02  1.94412E+02 -1.00000E+00  1.14043E-01
       4    -1     0     0   501     0  0.000000000E+00  0.000000000E+00  3.283748607E+02  3.283748607E+02  0.000000000E+00  0.00000E+00  9.000E+00
       3    -1     0     0   502     0  0.000000000E+00  0.000000000E+00 -6.672145171E+02  6.672145171E+02  0.000000000E+00  0.00000E+00  9.000E+00
      23     2     1     2     0     0 -4.062035750E+01 -3.087661900E+02 -3.663911130E+01  3.265643112E+02  9.118800000E+01  0.00000E+00  9.000E+00
     -13     1     3     3     0     0  3.394549820E+00 -3.213215057E+01 -3.334434512E+01  4.643118126E+01  1.057000000E-01  0.00000E+00  9.000E+00
      13     1     3     3     0     0 -4.401490732E+01 -2.766340394E+02 -3.294766175E+00  2.801331299E+02  1.057000000E-01  0.00000E+00  9.000E+00
       3     1     1     2   501     0  5.267082566E+01  3.843639235E+02 -2.798388041E+02  4.783511762E+02  5.000000000E-01  0.00000E+00  9.000E+00
       4     1     1     2   512     0 -3.257500539E+00 -5.989743449E+01 -9.691086692E+01  1.139836835E+02  1.500000000E+00  0.00000E+00  9.000E+00
      21     1     1     2   502   512 -8.792967623E+00 -1.570029901E+01  7.454912586E+01  7.669020690E+01  2.132480600E-06  0.00000E+00  9.000E+00
</event>
<event>
      8  10001  8.86342E-02  1.13700E+01 -1.00000E+00  1.95331E-01
      -1    -1     0     0     0   501  0.000000000E+00  0.000000000E+00  4.185977138E+00  4.185977138E+00  0.000000000E+00  0.00000E+00  9.000E+00
       1    -1     0     0   502     0  0.000000000E+00  0.000000000E+00 -1.114390085E+03  1.114390085E+03  0.000000000E+00  0.00000E+00  9.000E+00
      23     2     1     2     0     0 -2.218168380E+01 -1.023709239E+01 -8.276926544E+02  8.330589454E+02  9.118800000E+01  0.00000E+00  9.000E+00
     -13     1     3     3     0     0  3.260487396E+01 -2.067138213E+01 -3.288702987E+02  3.311284772E+02  1.057000000E-01  0.00000E+00  9.000E+00
      13     1     3     3     0     0 -5.478655776E+01  1.043428974E+01 -4.988223557E+02  5.019304683E+02  1.057000000E-01  0.00000E+00  9.000E+00
      -1     1     1     2     0   511 -9.699977334E-01 -2.290389498E-01  5.472665021E-01  1.183957376E+00  3.300000000E-01  0.00000E+00  9.000E+00
       1     1     1     2   502     0  1.510938030E+01  7.842832207E+00 -2.272477455E+02  2.278847299E+02  3.300000000E-01  0.00000E+00  9.000E+00
      21     1     1     2   511   501  8.042301239E+00  2.623299137E+00 -5.581097420E+01  5.644842911E+01  1.348699152E-06  0.00000E+00  9.000E+00
</event>
<event>
      8  10001  1.06611E-02  1.31462E+02 -1.00000E+00  1.20899E-01
       1    -1     0     0   501     0  0.000000000E+00  0.000000000E+00  1.113533048E+03  1.113533048E+03  0.000000000E+00  0.00000E+00  9.000E+00
       2    -1     0     0   502     0  0.000000000E+00  0.000000000E+00 -1.358124656E+02  1.358124656E+02  0.000000000E+00  0.00000E+00  9.000E+00
      23     2     1     2     0     0 -1.565317125E+02  2.376712847E+02  6.048182301E+02  6.746185288E+02  9.118800000E+01  0.00000E+00  9.000E+00
     -13     1     3     3     0     0 -4.332738008E+01  7.588491609E+01  1.013849410E+02  1.338458060E+02  1.057000000E-01  0.00000E+00  9.000E+00
      13     1     3     3     0     0 -1.132043324E+02  1.617863686E+02  5.034332891E+02  5.407727228E+02  1.057000000E-01  0.00000E+00  9.000E+00
       2     1     1     2   501     0  6.505965229E+01 -2.471788812E+02  1.204390476E+02  2.825523505E+02  3.300000000E-01  0.00000E+00  9.000E+00
       1     1     1     2   511     0  5.270036054E+01  6.505509827E+00  2.041519143E+01  5.689058446E+01  3.300000000E-01  0.00000E+00  9.000E+00
      21     1     1     2   502   511  3.877169966E+01  3.002086683E+00  2.320481133E+02  2.352840498E+02  2.697398305E-06  0.00000E+00  9.000E+00
</event>
<event>
      8  10001  5.59797E-02  1.45532E+01 -1.00000E+00  1.83755E-01
      -2    -1     0     0     0   501  0.000000000E+00  0.000000000E+00  4.030430735E+02  4.030430735E+02  0.000000000E+00  0.00000E+00  9.000E+00
       2    -1     0     0   502     0  0.000000000E+00  0.000000000E+00 -2.628191215E+01  2.628191215E+01  0.000000000E+00  0.00000E+00  9.000E+00
      23     2     1     2     0     0 -4.266137369E+01  9.024663404E+00  8.089118803E+01  1.294607006E+02  9.118800000E+01  0.00000E+00  9.000E+00
     -13     1     3     3     0     0  9.077164669E+00  3.477100932E+01  8.676678443E+00  3.696909424E+01  1.057000000E-01  0.00000E+00  9.000E+00
      13     1     3     3     0     0 -5.173853836E+01 -2.574634592E+01  7.221450959E+01  9.249160636E+01  1.057000000E-01  0.00000E+00  9.000E+00
      -2     1     1     2     0   512  5.741473315E-03 -4.662247684E-01  3.200537075E+00  3.251113051E+00  3.300000000E-01  0.00000E+00  9.000E+00
       2     1     1     2   502     0  3.559065281E+01 -1.443581786E+01  2.526009742E+02  2.555043023E+02  3.300000000E-01  0.00000E+00  9.000E+00
      21     1     1     2   512   501  7.064979402E+00  5.877379229E+00  4.006846200E+01  4.110886970E+01  1.907348633E-06  0.00000E+00  9.000E+00
</event>
<event>
      8  10001  2.01178E-01  3.66430E+01 -1.00000E+00  1.50661E-01
       2    -1     0     0   501     0  0.000000000E+00  0.000000000E+00  2.585480082E+03  2.585480082E+03  0.000000000E+00  0.00000E+00  9.000E+00
       3    -1     0     0   502     0  0.000000000E+00  0.000000000E+00 -2.085873197E+02  2.085873197E+02  0.000000000E+00  0.00000E+00  9.000E+00
      23     2     1     2     0     0  1.901424907E+01  3.942703625E+01 -1.882671388E+02  2.137189738E+02  9.118800000E+01  0.00000E+00  9.000E+00
     -13     1     3     3     0     0  2.810601207E+01  6.592886756E+00 -1.746642155E+02  1.770339329E+02  1.057000000E-01  0.00000E+00  9.000E+00
      13     1     3     3     0     0 -9.091762996E+00  3.283414949E+01 -1.360292336E+01  3.668504087E+01  1.057000000E-01  0.00000E+00  9.000E+00
       2     1     1     2   501     0 -1.595885185E+01 -3.549691984E+01  2.565416226E+03  2.565711448E+03  3.300000000E-01  0.00000E+00  9.000E+00
       3     1     1     2   511     0 -2.207248359E+00 -2.603731405E+00  6.683218770E+00  7.521088730E+00  5.000000000E-01  0.00000E+00  9.000E+00
      21     1     1     2   502   511 -8.481488658E-01 -1.326385004E+00 -6.939542826E+00  7.115891252E+00  4.362962284E-06  0.00000E+00  9.000E+00
</event>
<event>
      8  10001  1.37385E-02  1.61892E+02 -1.00000E+00  1.17149E-01
       2    -1     0     0   501     0  0.000000000E+00  0.000000000E+00  4.573881137E+02  4.573881137E+02  0.000000000E+00  0.00000E+00  9.000E+00
      -2    -1     0     0     0   502  0.000000000E+00  0.000000000E+00 -7.257617200E+01  7.257617200E+01  0.000000000E+00  0.00000E+00  9.000E+00
      23     2     1     2     0     0  3.870921343E+01  4.624300880E+01  2.336280257E+01  1.117939665E+02  9.118800000E+01  0.00000E+00  9.000E+00
     -13     1     3     3     0     0  6.627151787E+01  2.385395065E+01  2.225494034E+00  7.046906441E+01  1.057000000E-01  0.00000E+00  9.000E+00
      13     1     3     3     0     0 -2.756230445E+01  2.238905815E+01  2.113730854E+01  4.132490213E+01  1.057000000E-01  0.00000E+00  9.000E+00
       1     1     1     2   501     0  8.192044758E+00 -1.487458172E+01  2.079917983E+02  2.086841150E+02  3.300000000E-01  0.00000E+00  9.000E+00
      -1     1     1     2     0   512  8.458121101E+00  7.810373009E-01 -2.153481130E+01  2.315182130E+01  3.300000000E-01  0.00000E+00  9.000E+00
      21     1     1     2   512   502 -5.535937929E+01 -3.214946439E+01  1.749921521E+02  1.863343828E+02  3.303624740E-06  0.00000E+00  9.000E+00
</event>
<event>
      8  10001  1.05303E-02  6.84361E+02 -1.00000E+00  9.65162E-02
       2    -1     0     0   501     0  0.000000000E+00  0.000000000E+00  1.565852987E+03  1.565852987E+03  0.000000000E+00  0.00000E+00  9.000E+00
       1    -1     0     0   502     0  0.000000000E+00  0.000000000E+00 -3.214442613E+02  3.214442613E+02  0.000000000E+00  0.00000E+00  9.000E+00
      23     2     1     2     0     0 -6.227777161E+01  3.171473285E+02  1.781712252E+02  3.801594213E+02  9.118800000E+01  0.00000E+00  9.000E+00
     -13     1     3     3     0     0  1.285503676E+01  1.579371005E+02  6.766017683E+01  1.723000011E+02  1.057000000E-01  0.00000E+00  9.000E+00
      13     1     3     3     0     0 -7.513280837E+01  1.592102279E+02  1.105110484E+02  2.078594202E+02  1.057000000E-01  0.00000E+00  9.000E+00
       1     1     1     2   511     0  1.337844524E+02  1.072828607E+02  8.123590747E+02  8.302621677E+02  3.300000000E-01  0.00000E+00  9.000E+00
       2     1     1     2   502     0  1.184648425E+01 -3.289483698E+02  3.767915541E+02  5.003192514E+02  3.300000000E-01  0.00000E+00  9.000E+00
      21     1     1     2   501   511 -8.335316505E+01 -9.548181933E+01 -1.229131285E+02  1.765564077E+02  1.758488552E-05  0.00000E+00  9.000E+00
</event>
<event>
      8  10001  6.02837E-02  1.70899E+01 -1.00000E+00  1.76953E-01
      -2    -1     0     0     0   501  0.000000000E+00  0.000000000E+00  9.165408676E+00  9.165408676E+00  0.000000000E+00  0.00000E+00  9.000E+00
       2    -1     0     0   502     0  0.000000000E+00  0.000000000E+00 -1.588892828E+03  1.588892828E+03  0.000000000E+00  0.00000E+00  9.000E+00
      23     2     1     2     0     0 -1.662773047E+00 -1.369550366E+00 -2.434141216E+02  2.599429292E+02  9.118800000E+01  0.00000E+00  9.000E+00
     -13     1     3     3     0     0 -8.848255849E+00  1.467582039E+01 -1.294669138E+00  1.718600234E+01  1.057000000E-01  0.00000E+00  9.000E+00
      13     1     3     3     0     0  7.185482801E+00 -1.604537076E+01 -2.421194525E+02  2.427569268E+02  1.057000000E-01  0.00000E+00  9.000E+00
      -2     1     1     2     0   511  4.149084100E+00  4.984940783E+00 -8.515835874E+01  8.540561748E+01  3.300000000E-01  0.00000E+00  9.000E+00
       2     1     1     2   502     0 -7.869578893E+00 -3.622882219E+00 -1.242412568E+03  1.242442817E+03  3.300000000E-01  0.00000E+00  9.000E+00
      21     1     1     2   511   501  5.383267841E+00  7.491802378E-03 -8.742370221E+00  1.026687225E+01  0.000000000E+00  0.00000E+00  9.000E+00
</event>
<event>
      8  10001  1.20579E-02  4.82573E+01 -1.00000E+00  1.43038E-01
       2    -1     0     0   501     0  0.000000000E+00  0.000000000E+00  2.342008665E+02  2.342008665E+02  0.000000000E+00  0.00000E+00  9.000E+00
      -2    -1     0     0     0   502  0.000000000E+00  0.000000000E+00 -7.636779185E+01  7.636779185E+01  0.000000000E+00  0.00000E+00  9.000E+00
      23     2     1     2     0     0 -7.732582826E+00  7.998420004E+01  4.104797345E+01  1.282866032E+02  9.118800000E+01  0.00000E+00  9.000E+00
     -13     1     3     3     0     0 -1.948826452E-01  8.185573295E+01  6.409601788E+01  1.039649445E+02  1.057000000E-01  0.00000E+00  9.000E+00
      13     1     3     3     0     0 -7.537700181E+00 -1.871532914E+00 -2.304804443E+01  2.432165874E+01  1.057000000E-01  0.00000E+00  9.000E+00
       1     1     1     2   501     0  3.226457902E+01 -8.267594393E+01  6.626761176E+01  1.107601915E+02  3.300000000E-01  0.00000E+00  9.000E+00
      -1     1     1     2     0   511 -2.086869960E+01  2.070982181E+00  1.064405357E-01  2.097407494E+01  3.300000000E-01  0.00000E+00  9.000E+00
      21     1     1     2   511   502 -3.663296594E+00  6.207617127E-01  5.041104890E+01  5.054778865E+01  6.743495762E-07  0.00000E+00  9.000E+00
</event>
<event>
      8  10001  1.08673E-02  1.08344E+02 -1.00000E+00  1.24609E-01
       2    -1     0     0   501     0  0.000000000E+00  0.000000000E+00  3.516491922E+02  3.516491922E+02  0.000000000E+00  0.00000E+00  9.000E+00
       2    -1     0     0   502     0  0.000000000E+00  0.000000000E+00 -8.388376428E+01  8.388376428E+01  0.000000000E+00  0.00000E+00  9.000E+00
      23     2     1     2     0     0  4.375950448E+01  3.253398444E+01  1.267148003E+02  1.653639814E+02  9.118800000E+01  0.00000E+00  9.000E+00
     -13     1     3     3     0     0  5.402576957E+00  5.298052875E+01  3.459820937E+01  6.350725572E+01  1.057000000E-01  0.00000E+00  9.000E+00
      13     1     3     3     0     0  3.835692752E+01 -2.044654431E+01  9.211659097E+01  1.018567257E+02  1.057000000E-01  0.00000E+00  9.000E+00
       2     1     1     2   501     0 -1.215384723E+02 -1.454814860E+01  9.762830636E+01  1.565715299E+02  3.300000000E-01  0.00000E+00  9.000E+00
       2     1     1     2   512     0  4.714909740E-02 -4.458185179E+00 -1.485188384E+01  1.551015769E+01  3.300000000E-01  0.00000E+00  9.000E+00
      21     1     1     2   502   512  7.773181876E+01 -1.352765066E+01  5.827420503E+01  9.808728742E+01  1.784161275E-06  0.00000E+00  9.000E+00
</event>
<event>
      8  10001  1.20592E-02  1.89093E+02 -1.00000E+00  1.14503E-01
       3    -1     0     0   501     0  0.000000000E+00  0.000000000E+00  1.538460630E+02  1.538460630E+02  0.000000000E+00  0.00000E+00  9.000E+00
       2    -1     0     0   502     0  0.000000000E+00  0.000000000E+00 -6.399925348E+02  6.399925348E+02  0.000000000E+00  0.00000E+00  9.000E+00
      23     2     1     2     0     0  1.533288940E+01 -9.440008958E+01  1.044922648E+02  1.684647119E+02  9.118800000E+01  0.00000E+00  9.000E+00
     -13     1     3     3     0     0  3.680370568E+01 -1.547233883E+01  6.809603389E+01  7.893660130E+01  1.057000000E-01  0.00000E+00  9.000E+00
      13     1     3     3     0     0 -2.147081629E+01 -7.892775074E+01  3.639623087E+01  8.952811057E+01  1.057000000E-01  0.00000E+00  9.000E+00
       4     1     1     2   511     0  1.053603965E+01  3.497895984E+00  1.133611231E+01  1.593740412E+01  1.500000000E+00  0.00000E+00  9.000E+00
       1     1     1     2   502     0 -1.306875409E+01  6.347174220E+01 -4.097972393E+02  4.148895523E+02  3.300000000E-01  0.00000E+00  9.000E+00
      21     1     1     2   501   511 -1.280017496E+01  2.743045139E+01 -1.921776096E+02  1.945469295E+02  9.344061824E-06  0.00000E+00  9.000E+00
</event>
<event>
      8  10001  1.07265E-02  1.72055E+03 -1.00000E+00  8.67905E-02
       2    -1     0     0   501     0  0.000000000E+00  0.000000000E+00  9.529461301E+02  9.529461301E+02  0.000000000E+00  0.00000E+00  9.000E+00
      -2    -1     0     0     0   502  0.000000000E+00  0.000000000E+00 -2.170566778E+03  2.170566778E+03  0.000000000E+00  0.00000E+00  9.000E+00
      23     2     1     2     0     0  1.024434434E+02 -3.077255010E+02  7.910919091E+02  8.598437667E+02  9.118800000E+01  0.00000E+00  9.000E+00
     -13     1     3     3     0     0  9.939804141E+01 -2.439750426E+02  5.409763102E+02  6.017135293E+02  1.057000000E-01  0.00000E+00  9.000E+00
      13     1     3     3     0     0  3.045401988E+00 -6.375045846E+01  2.501155989E+02  2.581302373E+02  1.057000000E-01  0.00000E+00  9.000E+00
       2     1     1     2   511     0  1.250544218E+02 -5.691177290E+01  3.044584467E+01  1.407288764E+02  3.300000000E-01  0.00000E+00  9.000E+00
      -2     1     1     2     0   502 -1.815220933E+01  3.063491665E+02 -6.737875454E+02  7.403844135E+02  3.300000000E-01  0.00000E+00  9.000E+00
      21     1     1     2   501   511 -2.093456559E+02  5.828810745E+01 -1.365370856E+03  1.382555852E+03  2.642899792E-05  0.00000E+00  9.000E+00
</event>
<event>
      8  10001  1.10623E-02  4.80049E+01 -1.00000E+00  1.43176E-01
       2    -1     0     0   501     0  0.000000000E+00  0.000000000E+00  2.462304728E+03  2.462304728E+03  0.000000000E+00  0.00000E+00  9.000E+00
      21    -1     0     0   511   502  0.000000000E+00  0.000000000E+00 -1.073311684E+02  1.073311684E+02  0.000000000E+00  0.00000E+00  9.000E+00
      23     2     1     2     0     0  6.451508885E+01  1.405038838E+01  6.317509339E+02  6.417040626E+02  9.118800000E+01  0.00000E+00  9.000E+00
     -13     1     3     3     0     0  7.806684770E+01 -3.917698466E+00  5.803729136E+02  5.856129362E+02  1.057000000E-01  0.00000E+00  9.000E+00
      13     1     3     3     0     0 -1.355175885E+01  1.796808685E+01  5.137802038E+01  5.609112643E+01  1.057000000E-01  0.00000E+00  9.000E+00
       2     1     1     2   501     0  4.479502444E+01 -7.878482649E+01  1.494291300E+03  1.497037154E+03  3.300000000E-01  0.00000E+00  9.000E+00
      -1     1     1     2     0   502 -9.963157273E+01  1.771540553E+01 -7.325005139E+01  1.249238360E+02  3.300000000E-01  0.00000E+00  9.000E+00
       1     1     1     2   511     0 -9.678540560E+00  4.701903257E+01  3.021813771E+02  3.059708436E+02  3.300000000E-01  0.00000E+00  9.000E+00
</event>
<event>
      8  10001  1.24444E-02  4.55072E+01 -1.00000E+00  1.44596E-01
       2    -1     0     0   501     0  0.000000000E+00  0.000000000E+00  8.438612223E+02  8.438612223E+02  0.000000000E+00  0.00000E+00  9.000E+00
      -1    -1     0     0     0   502  0.000000000E+00  0.000000000E+00 -3.270703998E+01  3.270703998E+01  0.000000000E+00  0.00000E+00  9.000E+00
      23     2     1     2     0     0  3.063068551E+01  5.150744679E+01  6.698571105E+02  6.786862720E+02  9.118800000E+01  0.00000E+00  9.000E+00
     -13     1     3     3     0     0 -6.273437059E+00  6.108310952E-03  4.532580007E-01  6.290680818E+00  1.057000000E-01  0.00000E+00  9.000E+00
      13     1     3     3     0     0  3.690412257E+01  5.150133848E+01  6.694038525E+02  6.723955912E+02  1.057000000E-01  0.00000E+00  9.000E+00
       2     1     1     2   501     0 -2.318649774E+01 -5.995482693E+01  2.673804484E+01  6.962202877E+01  3.300000000E-01  0.00000E+00  9.000E+00
      -1     1     1     2     0   511 -4.451296729E+00  1.092136714E+01 -1.713992602E+00  1.192212118E+01  3.300000000E-01  0.00000E+00  9.000E+00
      21     1     1     2   511   502 -2.992891041E+00 -2.473986998E+00  1.162730196E+02  1.163378404E+02  1.907348633E-06  0.00000E+00  9.000E+00
</event>
<event>
      8  10001  1.08243E-02  4.73713E+02 -1.00000E+00  1.01046E-01
       2    -1     0     0   501     0  0.000000000E+00  0.000000000E+00  2.992945094E+03  2.992945094E+03  0.000000000E+00  0.00000E+00  9.000E+00
       3    -1     0     0   502     0  0.000000000E+00  0.000000000E+00 -4.863424083E+01  4.863424083E+01  0.000000000E+00  0.00000E+00  9.000E+00
      23     2     1     2     0     0  2.891194611E+02  9.558094849E+01  1.169591547E+03  1.212017087E+03  9.118800000E+01  0.00000E+00  9.000E+00
     -13     1     3     3     0     0  2.694205231E+02  1.104997399E+02  1.035433112E+03  1.075601855E+03  1.057000000E-01  0.00000E+00  9.000E+00
      13     1     3     3     0     0  1.969893799E+01 -1.491879137E+01  1.341584351E+02  1.364152315E+02  1.057000000E-01  0.00000E+00  9.000E+00
       1     1     1     2   501     0 -9.836481545E+01  8.194244845E+00  3.815787648E+02  3.941386117E+02  3.300000000E-01  0.00000E+00  9.000E+00
       4     1     1     2   512     0  1.231809591E+01  3.403201007E+01  2.176068710E+01  4.225743366E+01  1.500000000E+00  0.00000E+00  9.000E+00
      21     1     1     2   502   512 -2.030727416E+02 -1.378072034E+02  1.371379854E+03  1.393166203E+03  2.642899792E-05  0.00000E+00  9.000E+00
</event>
<event>
      8  10001  1.17255E-02  2.44734E+02 -1.00000E+00  1.10367E-01
       2    -1     0     0   501     0  0.000000000E+00  0.000000000E+00  4.952431659E+03  4.952431659E+03  0.000000000E+00  0.00000E+00  9.000E+00
       2    -1     0     0   502     0  0.000000000E+00  0.000000000E+00 -1.792591331E+01  1.792591331E+01  0.000000000E+00  0.00000E+00  9.000E+00
      23     2     1     2     0     0  4.239135605E+00 -7.141104235E+00  2.870143431E+03  2.871603651E+03  9.118800000E+01  0.00000E+00  9.000E+00
     -13     1     3     3     0     0 -9.406908591E+00 -1.900315602E+01  1.598896651E+02  1.612895720E+02  1.057000000E-01  0.00000E+00  9.000E+00
      13     1     3     3     0     0  1.364604420E+01  1.186205178E+01  2.710253765E+03  2.710314079E+03  1.057000000E-01  0.00000E+00  9.000E+00
       2     1     1     2   501     0 -2.355004917E+01  2.545722847E+01  4.838356797E+01  5.952943681E+01  3.300000000E-01  0.00000E+00  9.000E+00
       2     1     1     2   511     0  3.582881456E+00 -2.001799863E+00 -1.119289169E+01  1.192618827E+01  3.300000000E-01  0.00000E+00  9.000E+00
      21     1     1     2   502   511  1.572803211E+01 -1.631432438E+01  2.027171639E+03  2.027298296E+03  3.051757813E-05  0.00000E+00  9.000E+00
</event>
<event>
      8  10001  1.57351E-02  6.47069E+01 -1.00000E+00  1.35741E-01
      21    -1     0     0   501   512  0.000000000E+00  0.000000000E+00  4.656816233E+02  4.656816233E+02  0.000000000E+00  0.00000E+00  9.000E+00
       2    -1     0     0   502     0  0.000000000E+00  0.000000000E+00 -3.678581103E+02  3.678581103E+02  0.000000000E+00  0.00000E+00  9.000E+00
      23     2     1     2     0     0  4.183395227E+01  1.064941524E+01 -1.228511071E+01  1.016349590E+02  9.118800000E+01  0.00000E+00  9.000E+00
     -13     1     3     3     0     0 -2.496611871E+01 -8.786391334E+00  1.043307325E+01  2.844939272E+01  1.057000000E-01  0.00000E+00  9.000E+00
      13     1     3     3     0     0  6.680007099E+01  1.943580657E+01 -2.271818396E+01  7.318556631E+01  1.057000000E-01  0.00000E+00  9.000E+00
       4     1     1     2   501     0 -4.186367613E+01  5.144938341E+01  3.975195438E+02  4.030181685E+02  1.500000000E+00  0.00000E+00  9.000E+00
       2     1     1     2   502     0 -9.208947156E+00  1.943560640E+00 -2.573522347E+02  2.575244915E+02  3.300000000E-01  0.00000E+00  9.000E+00
      -4     1     1     2     0   512  9.238671012E+00 -6.404235929E+01 -3.005868540E+01  7.136211455E+01  1.500000000E+00  0.00000E+00  9.000E+00
</event>
<event>
      8  10001  1.05577E-02  6.89098E+02 -1.00000E+00  9.64352E-02
       1    -1     0     0   501     0  0.000000000E+00  0.000000000E+00  4.094265436E+02  4.094265436E+02  0.000000000E+00  0.00000E+00  9.000E+00
       2    -1     0     0   502     0  0.000000000E+00  0.000000000E+00 -1.242278123E+03  1.242278123E+03  0.000000000E+00  0.00000E+00  9.000E+00
      23     2     1     2     0     0 -2.992679551E+01  7.506336538E+01  2.061715858E+02  2.394829765E+02  9.118800000E+01  0.00000E+00  9.000E+00
     -13     1     3     3     0     0 -5.154760625E+01  7.458248337E+01  1.952119889E+02  2.152380876E+02  1.057000000E-01  0.00000E+00  9.000E+00
      13     1     3     3     0     0  2.162081075E+01  4.808820095E-01  1.095959683E+01  2.424488895E+01  1.057000000E-01  0.00000E+00  9.000E+00
       2     1     1     2   511     0 -1.954671068E+02  2.986002678E+01 -5.474031678E+02  5.820217763E+02  3.300000000E-01  0.00000E+00  9.000E+00
       1     1     1     2   502     0 -5.291554214E+01 -1.202082050E+02 -5.325277195E+02  5.484851393E+02  3.300000000E-01  0.00000E+00  9.000E+00
      21     1     1     2   501   511  2.783094444E+02  1.528481284E+01  4.090772232E+01  2.817147744E+02  9.428844420E-06  0.00000E+00  9.000E+00
</event>
<event>
      8  10001  5.60087E-02  1.74343E+01 -1.00000E+00  1.76145E-01
       1    -1     0     0   501     0  0.000000000E+00  0.000000000E+00  2.221964656E+02  2.221964656E+02  0.000000000E+00  0.00000E+00  9.000E+00
      -3    -1     0     0     0   502  0.000000000E+00  0.000000000E+00 -3.521912007E+01  3.521912007E+01  0.000000000E+00  0.00000E+00  9.000E+00
      23     2     1     2     0     0  3.418572870E+01 -2.185056888E+01  1.529628945E+02  1.826444903E+02  9.118800000E+01  0.00000E+00  9.000E+00
     -13     1     3     3     0     0  1.809575820E+01 -5.346733717E+01  1.260628212E+02  1.381233459E+02  1.057000000E-01  0.00000E+00  9.000E+00
      13     1     3     3     0     0  1.608997051E+01  3.161676830E+01  2.690007329E+01  4.452114446E+01  1.057000000E-01  0.00000E+00  9.000E+00
       2     1     1     2   511     0  5.892864526E+00 -1.999407229E+00  3.684653681E+00  7.239409805E+00  3.300000000E-01  0.00000E+00  9.000E+00
      -4     1     1     2     0   502 -4.196971507E+01  2.410372302E+01  3.677897661E+01  6.080616389E+01  1.500000000E+00  0.00000E+00  9.000E+00
      21     1     1     2   501   511  1.891121841E+00 -2.537469082E-01 -6.449179223E+00  6.725521687E+00  8.719407820E-07  0.00000E+00  9.000E+00
</event>
<event>
      8  10001  1.09987E-02  3.21557E+02 -1.00000E+00  1.06310E-01
       2    -1     0     0   501     0  0.000000000E+00  0.000000000E+00  1.029716866E+02  1.029716866E+02  0.000000000E+00  0.00000E+00  9.000E+00
       1    -1     0     0   502     0  0.000000000E+00  0.000000000E+00 -7.304273807E+02  7.304273807E+02  0.000000000E+00  0.00000E+00  9.000E+00
      23     2     1     2     0     0  1.301545687E+01  3.917649321E+01 -5.063130902E+02  5.161127749E+02  9.118800000E+01  0.00000E+00  9.000E+00
     -13     1     3     3     0     0 -2.835636542E+01  4.892902592E+01 -2.515911253E+02  2.578686459E+02  1.057000000E-01  0.00000E+00  9.000E+00
      13     1     3     3     0     0  4.137182229E+01 -9.752532711E+00 -2.547219649E+02  2.582441290E+02  1.057000000E-01  0.00000E+00  9.000E+00
       1     1     1     2   501     0 -5.723269278E+01 -9.279088600E+01 -1.118579971E+02  1.561987518E+02  3.300000000E-01  0.00000E+00  9.000E+00
       2     1     1     2   511     0  2.873033072E+01  1.794461044E+01 -7.637025283E+01  8.354618701E+01  3.300000000E-01  0.00000E+00  9.000E+00
      21     1     1     2   502   511  1.548690519E+01  3.566978235E+01  6.708564604E+01  7.754135355E+01  1.348699152E-06  0.00000E+00  9.000E+00
</event>
<event>
      8  10001  1.07189E-02  2.26324E+02 -1.00000E+00  1.11589E-01
       3    -1     0     0   501     0  0.000000000E+00  0.000000000E+00  3.193867790E+02  3.193867790E+02  0.000000000E+00  0.00000E+00  9.000E+00
       3    -1     0     0   502     0  0.000000000E+00  0.000000000E+00 -1.291016416E+02  1.291016416E+02  0.000000000E+00  0.00000E+00  9.000E+00
      23     2     1     2     0     0  1.067270148E+01 -7.679194675E+01  6.893539089E+01  1.381240352E+02  9.118800000E+01  0.00000E+00  9.000E+00
     -13     1     3     3     0     0  1.620712008E+01 -8.570626238E+01  2.190014626E+01  8.993253989E+01  1.057000000E-01  0.00000E+00  9.000E+00
      13     1     3     3     0     0 -5.534418592E+00  8.914315626E+00  4.703524463E+01  4.819149533E+01  1.057000000E-01  0.00000E+00  9.000E+00
       3     1     1     2   501     0  9.595399331E+01  9.672760374E+01  6.691852857E+01  1.517950514E+02  5.000000000E-01  0.00000E+00  9.000E+00
       3     1     1     2   512     0  1.624895073E+01 -1.689162035E+00 -9.454076035E+00  1.888150476E+01  5.000000000E-01  0.00000E+00  9.000E+00
      21     1     1     2   502   512 -1.228756455E+02 -1.824649496E+01  6.388529398E+01  1.396878292E+02  1.168007728E-06  0.00000E+00  9.000E+00
</event>
<event>
      8  10001  1.22245E-02  1.22720E+02 -1.00000E+00  1.22193E-01
      -4    -1     0     0     0   501  0.000000000E+00  0.000000000E+00  6.529376351E+02  6.529376351E+02  0.000000000E+00  0.00000E+00  9.000E+00
       4    -1     0     0   502     0  0.000000000E+00  0.000000000E+00 -3.253095286E+01  3.253095286E+01  0.000000000E+00  0.00000E+00  9.000E+00
      23     2     1     2     0     0 -3.528588022E+00 -1.056597857E+02  4.091058116E+02  4.322722032E+02  9.118800000E+01  0.00000E+00  9.000E+00
     -13     1     3     3     0     0 -3.313196868E+01 -7.824111144E+01  3.535050026E+02  3.635728220E+02  1.057000000E-01  0.00000E+00  9.000E+00
      13     1     3     3     0     0  2.960338066E+01 -2.741867426E+01  5.560080898E+01  6.869938119E+01  1.057000000E-01  0.00000E+00  9.000E+00
      -3     1     1     2     0   511  1.012897064E-01 -6.136727773E+00  3.306996510E+01  3.363840483E+01  5.000000000E-01  0.00000E+00  9.000E+00
       3     1     1     2   502     0  1.307760636E+01  7.420062012E+01  1.596258858E+02  1.765146715E+02  5.000000000E-01  0.00000E+00  9.000E+00
      21     1     1     2   511   501 -9.650308046E+00  3.759589335E+01  1.860501968E+01  4.304330842E+01  2.384185791E-07  0.00000E+00  9.000E+00
</event>
<event>
      8  10001  1.05247E-02  1.15563E+03 -1.00000E+00  9.07339E-02
       2    -1     0     0   501     0  0.000000000E+00  0.000000000E+00  2.207010658E+03  2.207010658E+03  0.000000000E+00  0.00000E+00  9.000E+00
       1    -1     0     0   502     0  0.000000000E+00  0.000000000E+00 -3.943267292E+02  3.943267292E+02  0.000000000E+00  0.00000E+00  9.000E+00
      23     2     1     2     0     0  2.072352256E+02  5.940624318E+02  8.307783480E+02  1.046118792E+03  9.118800000E+01  0.00000E+00  9.000E+00
     -13     1     3     3     0     0  1.767830824E+02  3.766430983E+02  5.334857149E+02  6.765495554E+02  1.057000000E-01  0.00000E+00  9.000E+00
      13     1     3     3     0     0  3.045214325E+01  2.174193335E+02  2.972926331E+02  3.695692364E+02  1.057000000E-01  0.00000E+00  9.000E+00
       1     1     1     2   511     0  5.525265072E+01  1.497961249E+02  3.156562036E+02  3.537381549E+02  3.300000000E-01  0.00000E+00  9.000E+00
       2     1     1     2   502     0  1.883489611E+02 -3.647832831E+02  2.599813152E+02  4.859347362E+02  3.300000000E-01  0.00000E+00  9.000E+00
      21     1     1     2   501   511 -4.508368374E+02 -3.790752736E+02  4.062680623E+02  7.155457047E+02  4.143821904E-05  0.00000E+00  9.000E+00
</event>
<event>
      8  10001  1.57246E-02  5.40373E+02 -1.00000E+00  9.93760E-02
      -2    -1     0     0     0   501  0.000000000E+00  0.000000000E+00  9.481768250E+01  9.481768250E+01  0.000000000E+00  0.00000E+00  9.000E+00
       2    -1     0     0   502     0  0.000000000E+00  0.000000000E+00 -1.114057673E+03  1.114057673E+03  0.000000000E+00  0.00000E+00  9.000E+00
      23     2     1     2     0     0 -1.503968361E+01 -3.899940347E+01 -9.666445817E+02  9.718354512E+02  9.118800000E+01  0.00000E+00  9.000E+00
     -13     1     3     3     0     0  1.802189268E+01 -1.596263655E+01 -8.009362513E+02  8.012979996E+02  1.057000000E-01  0.00000E+00  9.000E+00
      13     1     3     3     0     0 -3.306157629E+01 -2.303676692E+01 -1.657083304E+02  1.705374516E+02  1.057000000E-01  0.00000E+00  9.000E+00
      -2     1     1     2     0   501 -5.169473902E+00  4.862534463E+01 -7.650905137E+01  9.080138458E+01  3.300000000E-01  0.00000E+00  9.000E+00
       2     1     1     2   511     0  3.839906532E+00  1.379308534E+01 -5.786557934E+01  5.961147757E+01  3.300000000E-01  0.00000E+00  9.000E+00
      21     1     1     2   502   511  1.636925098E+01 -2.341902650E+01  8.177922225E+01  8.662704180E+01  8.895281842E-06  0.00000E+00  9.000E+00
</event>
<event>
      8  10001  1.08964E-02  1.10315E+02 -1.00000E+00  1.24254E-01
       2    -1     0     0   501     0  0.000000000E+00  0.000000000E+00  3.876521959E+01  3.876521959E+01  0.000000000E+00  0.00000E+00  9.000E+00
       1    -1     0     0   502     0  0.000000000E+00  0.000000000E+00 -2.391014682E+03  2.391014682E+03  0.000000000E+00  0.00000E+00  9.000E+00
      23     2     1     2     0     0 -1.328722126E+02 -1.667109169E+02 -1.792735157E+03  1.807667600E+03  9.118800000E+01  0.00000E+00  9.000E+00
     -13     1     3     3     0     0 -4.305683727E+01 -1.255365137E+02 -9.782052644E+02  9.871670872E+02  1.057000000E-01  0.00000E+00  9.000E+00
      13     1     3     3     0     0 -8.981537537E+01 -4.117440316E+01 -8.145298930E+02  8.205005124E+02  1.057000000E-01  0.00000E+00  9.000E+00
       1     1     1     2   501     0  1.052123307E+02  1.257320700E+02 -2.473898851E+02  2.967828366E+02  3.300000000E-01  0.00000E+00  9.000E+00
       2     1     1     2   512     0 -1.892972977E+01  1.387253318E+01 -1.948808584E+02  1.962891737E+02  3.300000000E-01  0.00000E+00  9.000E+00
      21     1     1     2   502   512  4.658961172E+01  2.710631373E+01 -1.172435617E+02  1.290402918E+02  3.303624740E-06  0.00000E+00  9.000E+00
</event>
<event>
      8  10001  1.06073E-02  2.17247E+02 -1.00000E+00  1.12239E-01
      -4    -1     0     0     0   501  0.000000000E+00  0.000000000E+00  5.584914100E+01  5.584914100E+01  0.000000000E+00  0.00000E+00  9.000E+00
       2    -1     0     0   502     0  0.000000000E+00  0.000000000E+00 -2.827108883E+03  2.827108883E+03  0.000000000E+00  0.00000E+00  9.000E+00
      23     2     1     2     0     0 -9.484824262E+01 -2.558201628E+01 -9.720233063E+01  1.655722595E+02  9.118800000E+01  0.00000E+00  9.000E+00
     -13     1     3     3     0     0 -7.974616790E+01 -1.382942059E+01 -1.646013461E+01  8.259328891E+01  1.057000000E-01  0.00000E+00  9.000E+00
      13     1     3     3     0     0 -1.510207472E+01 -1.175259569E+01 -8.074219603E+01  8.297897058E+01  1.057000000E-01  0.00000E+00  9.000E+00
      -3     1     1     2     0   511  1.421237383E+02 -1.526191434E+02 -7.175044049E+02  7.471978192E+02  5.000000000E-01  0.00000E+00  9.000E+00
       1     1     1     2   502     0 -5.905524024E+01  1.456065806E+02 -9.398182003E+02  9.528626114E+02  3.300000000E-01  0.00000E+00  9.000E+00
      21     1     1     2   511   501  1.177974453E+01  3.259457902E+01 -1.016734806E+03  1.017325334E+03  2.854658040E-05  0.00000E+00  9.000E+00
</event>
<event>
      8  10001  1.08749E-02  8.91545E+01 -1.00000E+00  1.28593E-01
       2    -1     0     0   501     0  0.000000000E+00  0.000000000E+00  5.436590896E+02  5.436590896E+02  0.000000000E+00  0.00000E+00  9.000E+00
       2    -1     0     0   502     0  0.000000000E+00  0.000000000E+00 -1.164649626E+02  1.164649626E+02  0.000000000E+00  0.00000E+00  9.000E+00
      23     2     1     2     0     0  1.808318732E+01 -7.244214030E+01 -4.468869252E+01  1.260444205E+02  9.118800000E+01  0.00000E+00  9.000E+00
     -13     1     3     3     0     0  4.981294429E+01 -6.173724104E+01 -4.746368985E+01  9.244257340E+01  1.057000000E-01  0.00000E+00  9.000E+00
      13     1     3     3     0     0 -3.172975697E+01 -1.070489926E+01  2.774997332E+00  3.360184710E+01  1.057000000E-01  0.00000E+00  9.000E+00
       2     1     1     2   511     0  6.971355480E+00 -6.144034771E+00  1.477903086E+02  1.480825215E+02  3.300000000E-01  0.00000E+00  9.000E+00
       2     1     1     2   502     0 -5.388854346E+01  1.146804209E+02  3.141504547E+02  3.387420717E+02  3.300000000E-01  0.00000E+00  9.000E+00
      21     1     1     2   501   511  2.883400066E+01 -3.609424585E+01  9.942056215E+00  4.725503846E+01  2.823524304E-06  0.00000E+00  9.000E+00
</event>
<event>
      8  10001  1.38176E-02  1.53531E+02 -1.00000E+00  1.18081E-01
      -4    -1     0     0     0   501  0.000000000E+00  0.000000000E+00  1.466974319E+01  1.466974319E+01  0.000000000E+00  0.00000E+00  9.000E+00
       2    -1     0     0   502     0  0.000000000E+00  0.000000000E+00 -1.195767802E+03  1.195767802E+03  0.000000000E+00  0.00000E+00  9.000E+00
      23     2     1     2     0     0 -4.997805175E+00 -8.837722832E+00 -2.020642694E+02  2.219195884E+02  9.118800000E+01  0.00000E+00  9.000E+00
     -13     1     3     3     0     0  2.600277586E+01 -2.657514331E-01 -1.111471403E+01  2.828008162E+01  1.057000000E-01  0.00000E+00  9.000E+00
      13     1     3     3     0     0 -3.100058103E+01 -8.571971399E+00 -1.909495553E+02  1.936395067E+02  1.057000000E-01  0.00000E+00  9.000E+00
      -3     1     1     2     0   511 -7.894825765E+00 -2.590145787E+01 -6.011405255E+01  6.593301986E+01  5.000000000E-01  0.00000E+00  9.000E+00
       1     1     1     2   502     0 -6.432335742E+00  3.290486557E+01 -1.628408888E+02  1.662569370E+02  3.300000000E-01  0.00000E+00  9.000E+00
      21     1     1     2   511   501  1.932496668E+01  1.834315135E+00 -7.560788482E+02  7.563280001E+02  2.854658040E-05  0.00000E+00  9.000E+00
</event>
<event>
      8  10001  3.23229E-02  2.31115E+01 -1.00000E+00  1.65489E-01
       1    -1     0     0   501     0  0.000000000E+00  0.000000000E+00  1.489045348E+03  1.489045348E+03  0.000000000E+00  0.00000E+00  9.000E+00
       4    -1     0     0   502     0  0.000000000E+00  0.000000000E+00 -2.120701183E+02  2.120701183E+02  0.000000000E+00  0.00000E+00  9.000E+00
      23     2     1     2     0     0  1.752657057E+02 -2.945655217E+02 -1.711073753E+01  3.550984974E+02  9.118800000E+01  0.00000E+00  9.000E+00
     -13     1     3     3     0     0  9.681463241E+00 -4.123544735E+01  2.554220422E+01  4.946218977E+01  1.057000000E-01  0.00000E+00  9.000E+00
      13     1     3     3     0     0  1.655842425E+02 -2.533300744E+02 -4.265294175E+01  3.056363076E+02  1.057000000E-01  0.00000E+00  9.000E+00
       2     1     1     2   511     0  9.292550645E+00 -2.763224379E+00  2.322146784E+01  2.516609575E+01  3.300000000E-01  0.00000E+00  9.000E+00
       3     1     1     2   502     0 -1.853408292E+02  2.974338688E+02  1.203641704E+03  1.253623440E+03  5.000000000E-01  0.00000E+00  9.000E+00
      21     1     1     2   501   511  7.825728316E-01 -1.051227018E-01  6.722279509E+01  6.722743228E+01  2.132480600E-06  0.00000E+00  9.000E+00
</event>
<event>
      8  10001  1.08249E-02  4.75375E+02 -1.00000E+00  1.01001E-01
       1    -1     0     0   501     0  0.000000000E+00  0.000000000E+00  8.073809512E+02  8.073809512E+02  0.000000000E+00  0.00000E+00  9.000E+00
       2    -1     0     0   502     0  0.000000000E+00  0.000000000E+00 -1.215204354E+02  1.215204354E+02  0.000000000E+00  0.00000E+00  9.000E+00
      23     2     1     2     0     0  1.456262767E+02  2.262180848E+01  1.586145048E+02  2.349309923E+02  9.118800000E+01  0.00000E+00  9.000E+00
     -13     1     3     3     0     0  1.273810181E+02  5.103664599E+01  1.413552901E+02  1.970075943E+02  1.057000000E-01  0.00000E+00  9.000E+00
      13     1     3     3     0     0  1.824525863E+01 -2.841483751E+01  1.725921462E+01  3.792339799E+01  1.057000000E-01  0.00000E+00  9.000E+00
       2     1     1     2   501     0  3.627541724E+01 -5.301527406E+01  1.412288504E+01  6.577301849E+01  3.300000000E-01  0.00000E+00  9.000E+00
       1     1     1     2   511     0 -6.999295615E+00 -4.194108409E+01 -3.065585878E+01  5.242075211E+01  3.300000000E-01  0.00000E+00  9.000E+00
      21     1     1     2   502   511 -1.749023983E+02  7.233454967E+01  5.437789848E+02  5.757766236E+02  7.629394531E-06  0.00000E+00  9.000E+00
</event>
<event>
      8  10001  1.09428E-02  3.58580E+02 -1.00000E+00  1.04773E-01
       4    -1     0     0   501     0  0.000000000E+00  0.000000000E+00  6.446697162E+01  6.446697162E+01  0.000000000E+00  0.00000E+00  9.000E+00
       1    -1     0     0   502     0  0.000000000E+00  0.000000000E+00 -9.283922207E+02  9.283922207E+02  0.000000000E+00  0.00000E+00  9.000E+00
      23     2     1     2     0     0 -8.479429395E+01 -5.960356953E+01 -2.484065661E+02  2.841896043E+02  9.118800000E+01  0.00000E+00  9.000E+00
     -13     1     3     3     0     0 -5.680033245E+01  8.320474394E+00 -1.554182673E+02  1.656814928E+02  1.057000000E-01  0.00000E+00  9.000E+00
      13     1     3     3     0     0 -2.799396150E+01 -6.792404392E+01 -9.298829881E+01  1.185081116E+02  1.057000000E-01  0.00000E+00  9.000E+00
       3     1     1     2   501     0  6.508575920E+00 -5.273934025E+01 -1.599025304E+02  1.685018362E+02  5.000000000E-01  0.00000E+00  9.000E+00
       2     1     1     2   512     0 -3.334323680E+01  1.121965641E+01 -3.600975122E+02  3.618120774E+02  3.300000000E-01  0.00000E+00  9.000E+00
      21     1     1     2   502   512  1.116289548E+02  1.011232534E+02 -9.551864026E+01  1.783556743E+02  3.568322551E-06  0.00000E+00  9.000E+00
</event>
<event>
      8  10001  1.11029E-02  5.97538E+02 -1.00000E+00  9.81378E-02
       3    -1     0     0   501     0  0.000000000E+00  0.000000000E+00  2.704802105E+02  2.704802105E+02  0.000000000E+00  0.00000E+00  9.000E+00
       2    -1     0     0   502     0  0.000000000E+00  0.000000000E+00 -6.139047829E+02  6.139047829E+02  0.000000000E+00  0.00000E+00  9.000E+00
      23     2     1     2     0     0 -5.133361002E+01 -1.375407436E+01  2.052925828E+02  2.308345944E+02  9.118800000E+01  0.00000E+00  9.000E+00
     -13     1     3     3     0     0 -2.037137962E+00 -2.248150494E+01  1.650932060E+02  1.666293666E+02  1.057000000E-01  0.00000E+00  9.000E+00
      13     1     3     3     0     0 -4.929647206E+01  8.727430583E+00  4.019937679E+01  6.420522774E+01  1.057000000E-01  0.00000E+00  9.000E+00
       3     1     1     2   511     0 -1.000269389E+00  2.585633133E+00  3.967532887E+01  3.977521538E+01  5.000000000E-01  0.00000E+00  9.000E+00
       2     1     1     2   502     0  2.393335730E+01  7.490065383E+01 -1.452043475E+02  1.651282076E+02  3.300000000E-01  0.00000E+00  9.000E+00
      21     1     1     2   501   511  2.840052211E+01 -6.373221261E+01 -4.431881366E+02  4.486469759E+02  1.705984480E-05  0.00000E+00  9.000E+00
</event>
<event>
      8  10001  1.11858E-02  5.23743E+02 -1.00000E+00  9.97674E-02
       2    -1     0     0   501     0  0.000000000E+00  0.000000000E+00  7.002924198E+02  7.002924198E+02  0.000000000E+00  0.00000E+00  9.000E+00
       1    -1     0     0   502     0  0.000000000E+00  0.000000000E+00 -2.970140590E+02  2.970140590E+02  0.000000000E+00  0.00000E+00  9.000E+00
      23     2     1     2     0     0  1.763496006E+00  1.487864783E+02  5.114366930E+02  5.403917730E+02  9.118800000E+01  0.00000E+00  9.000E+00
     -13     1     3     3     0     0  7.379725473E-01  1.224254388E+02  4.935763759E+02  5.085333644E+02  1.057000000E-01  0.00000E+00  9.000E+00
      13     1     3     3     0     0  1.025523459E+00  2.636103948E+01  1.786031711E+01  3.185840863E+01  1.057000000E-01  0.00000E+00  9.000E+00
       1     1     1     2   511     0 -9.116896954E+00 -3.955427515E+01  2.468700065E+01  4.751016096E+01  3.300000000E-01  0.00000E+00  9.000E+00
       2     1     1     2   502     0  4.327949816E+01  3.784063387E+01  1.094891804E+02  1.236649427E+02  3.300000000E-01  0.00000E+00  9.000E+00
      21     1     1     2   501   511 -3.592609721E+01 -1.470728370E+02 -2.423345133E+02  2.857396021E+02  8.946258087E-06  0.00000E+00  9.000E+00
</event>
<event>
      8  10001  1.06257E-02  2.48380E+02 -1.00000E+00  1.10140E-01
       3    -1     0     0   501     0  0.000000000E+00  0.000000000E+00  1.667219452E+02  1.667219452E+02  0.000000000E+00  0.00000E+00  9.000E+00
       2    -1     0     0   502     0  0.000000000E+00  0.000000000E+00 -9.774902944E+02  9.774902944E+02  0.000000000E+00  0.00000E+00  9.000E+00
      23     2     1     2     0     0  5.188245943E+01  3.969837770E+01  8.983614221E+01  1.437133765E+02  9.118800000E+01  0.00000E+00  9.000E+00
     -13     1     3     3     0     0  4.257188512E+01 -1.991482062E+01  1.908028186E+01  5.072508069E+01  1.057000000E-01  0.00000E+00  9.000E+00
      13     1     3     3     0     0  9.310574314E+00  5.961319832E+01  7.075586034E+01  9.298829579E+01  1.057000000E-01  0.00000E+00  9.000E+00
       4     1     1     2   511     0  3.737145625E+01 -7.270255339E+00  3.285514981E+01  5.031096524E+01  1.500000000E+00  0.00000E+00  9.000E+00
       1     1     1     2   502     0 -1.302719754E+02 -2.016982068E+01 -6.232938455E+02  6.370815772E+02  3.300000000E-01  0.00000E+00  9.000E+00
      21     1     1     2   501   511  4.101805972E+01 -1.225830168E+01 -3.101657957E+02  3.131063206E+02  0.000000000E+00  0.00000E+00  9.000E+00
</event>
<event>
      8  10001  3.59412E-02  8.15251E+01 -1.00000E+00  1.30509E-01
       2    -1     0     0   501     0  0.000000000E+00  0.000000000E+00  1.236335083E+01  1.236335083E+01  0.000000000E+00  0.00000E+00  9.000E+00
       1    -1     0     0   502     0  0.000000000E+00  0.000000000E+00 -6.187220370E+02  6.187220370E+02  0.000000000E+00  0.00000E+00  9.000E+00
      23     2     1     2     0     0 -1.780002017E+01 -2.686992188E+01 -2.451168678E+02  2.635078057E+02  9.118800000E+01  0.00000E+00  9.000E+00
     -13     1     3     3     0     0  1.237782303E+00 -5.852353525E+01 -1.290614307E+02  1.417159142E+02  1.057000000E-01  0.00000E+00  9.000E+00
      13     1     3     3     0     0 -1.903780247E+01  3.165361337E+01 -1.160554371E+02  1.217918914E+02  1.057000000E-01  0.00000E+00  9.000E+00
       2     1     1     2   511     0 -9.215480735E-01  2.112477959E+00 -3.875591393E+00  4.521163857E+00  3.300000000E-01  0.00000E+00  9.000E+00
       1     1     1     2   502     0  1.124046562E+01  1.284727924E+01 -2.432832980E+01  2.972166183E+01  3.300000000E-01  0.00000E+00  9.000E+00
      21     1     1     2   501   511  7.481102623E+00  1.191016468E+01 -3.330378972E+02  3.333347565E+02  1.265191952E-05  0.00000E+00  9.000E+00
</event>
<event>
      8  10001  1.21984E-02  1.16819E+02 -1.00000E+00  1.23137E-01
       2    -1     0     0   501     0  0.000000000E+00  0.000000000E+00  7.586952196E+01  7.586952196E+01  0.000000000E+00  0.00000E+00  9.000E+00
      -2    -1     0     0     0   502  0.000000000E+00  0.000000000E+00 -2.257699673E+02  2.257699673E+02  0.000000000E+00  0.00000E+00  9.000E+00
      23     2     1     2     0     0 -1.000948340E+02 -1.477747128E+01 -9.242779878E+01  1.646071043E+02  9.118800000E+01  0.00000E+00  9.000E+00
     -13     1     3     3     0     0 -2.988207220E+01  2.247694081E+01  6.237135996E+00  3.790862890E+01  1.057000000E-01  0.00000E+00  9.000E+00
      13     1     3     3     0     0 -7.021276184E+01 -3.725441209E+01 -9.866493478E+01  1.266984754E+02  1.057000000E-01  0.00000E+00  9.000E+00
       2     1     1     2   501     0  5.008632876E+01  4.843523115E+00 -6.394927226E+01  8.137394158E+01  3.300000000E-01  0.00000E+00  9.000E+00
      -2     1     1     2     0   511 -8.434895036E-02  6.879332846E-01 -3.643827007E+00  3.723807487E+00  3.300000000E-01  0.00000E+00  9.000E+00
      21     1     1     2   511   502  5.009285423E+01  9.246014883E+00  1.012045275E+01  5.193463584E+01  1.203954809E-06  0.00000E+00  9.000E+00
</event>
<event>
      8  10001  2.32334E-02  1.02156E+02 -1.00000E+00  1.25784E-01
      -2    -1     0     0     0   501  0.000000000E+00  0.000000000E+00  3.746665344E+02  3.746665344E+02  0.000000000E+00  0.00000E+00  9.000E+00
       3    -1     0     0   502     0  0.000000000E+00  0.000000000E+00 -5.660651681E+01  5.660651681E+01  0.000000000E+00  0.00000E+00  9.000E+00
      23     2     1     2     0     0  1.858545918E+01  3.546603828E+01 -5.410853909E+00  9.973859758E+01  9.118800000E+01  0.00000E+00  9.000E+00
     -13     1     3     3     0     0  2.165891985E+01  6.302007056E+01  1.097117159E+01  6.753529360E+01  1.057000000E-01  0.00000E+00  9.000E+00
      13     1     3     3     0     0 -3.073460670E+00 -2.755403229E+01 -1.638202550E+01  3.220330399E+01  1.057000000E-01  0.00000E+00  9.000E+00
      -2     1     1     2     0   501 -1.239853064E+01 -1.677683121E+01  1.488905179E+02  1.503452056E+02  3.300000000E-01  0.00000E+00  9.000E+00
       3     1     1     2   512     0 -9.396958835E+00 -7.060451471E+00  8.125423171E+00  1.429773800E+01  5.000000000E-01  0.00000E+00  9.000E+00
      21     1     1     2   502   512  3.210030303E+00 -1.162875560E+01  1.664549305E+02  1.668915100E+02  3.303624740E-06  0.00000E+00  9.000E+00
</event>
<event>
      8  10001  1.33195E-02  3.27382E+02 -1.00000E+00  1.06053E-01
       2    -1     0     0   501     0  0.000000000E+00  0.000000000E+00  1.703904760E+02  1.703904760E+02  0.000000000E+00  0.00000E+00  9.000E+00
       2    -1     0     0   502     0  0.000000000E+00  0.000000000E+00 -1.607398271E+03  1.607398271E+03  0.000000000E+00  0.00000E+00  9.000E+00
      23     2     1     2     0     0  2.597709654E+01  3.370768004E+01 -1.088145377E+03  1.092788465E+03  9.118800000E+01  0.00000E+00  9.000E+00
     -13     1     3     3     0     0  3.759752639E+01  4.271657876E+01 -1.054933253E+03  1.056466970E+03  1.057000000E-01  0.00000E+00  9.000E+00
      13     1     3     3     0     0 -1.162042985E+01 -9.008898719E+00 -3.321212425E+01  3.632149523E+01  1.057000000E-01  0.00000E+00  9.000E+00
       2     1     1     2   511     0 -2.902435480E+01  2.616125449E+01  1.503451509E+02  1.553402642E+02  3.300000000E-01  0.00000E+00  9.000E+00
       2     1     1     2   502     0  1.786905358E+01 -2.415695897E+01 -1.116252715E+00  3.007019559E+01  3.300000000E-01  0.00000E+00  9.000E+00
      21     1     1     2   501   511 -1.482179533E+01 -3.571197557E+01 -4.980913158E+02  4.995898215E+02  1.206313194E-05  0.00000E+00  9.000E+00
</event>
<event>
      8  10001  1.60130E-02  1.69716E+02 -1.00000E+00  1.16332E-01
       2    -1     0     0   501     0  0.000000000E+00  0.000000000E+00  1.455135855E+02  1.455135855E+02  0.000000000E+00  0.00000E+00  9.000E+00
       2    -1     0     0   502     0  0.000000000E+00  0.000000000E+00 -3.407202858E+02  3.407202858E+02  0.000000000E+00  0.00000E+00  9.000E+00
      23     2     1     2     0     0 -6.163184765E+00 -5.813981218E+01  6.089549527E+01  1.242647790E+02  9.118800000E+01  0.00000E+00  9.000E+00
     -13     1     3     3     0     0  2.645522770E+01 -5.064687259E+01  2.788013886E+00  5.720811979E+01  1.057000000E-01  0.00000E+00  9.000E+00
      13     1     3     3     0     0 -3.261841247E+01 -7.492939582E+00  5.810748139E+01  6.705665919E+01  1.057000000E-01  0.00000E+00  9.000E+00
       2     1     1     2   501     0 -4.724029341E+00  1.395096746E+01 -1.597344503E+02  1.604124355E+02  3.300000000E-01  0.00000E+00  9.000E+00
       2     1     1     2   511     0  2.733153988E+01 -9.598114345E+00 -1.318898128E+02  1.350339531E+02  3.300000000E-01  0.00000E+00  9.000E+00
      21     1     1     2   502   511 -1.644432577E+01  5.378695906E+01  3.552206754E+01  6.652270362E+01  2.523185073E-06  0.00000E+00  9.000E+00
</event>
<event>
      8  10001  1.32869E-02  9.11426E+01 -1.00000E+00  1.28129E-01
       2    -1     0     0   501     0  0.000000000E+00  0.000000000E+00  1.627967245E+01  1.627967245E+01  0.000000000E+00  0.00000E+00  9.000E+00
       2    -1     0     0   502     0  0.000000000E+00  0.000000000E+00 -1.768955189E+03  1.768955189E+03  0.000000000E+00  0.00000E+00  9.000E+00
      23     2     1     2     0     0 -1.223143413E+01 -4.665658312E+01 -2.256589276E+02  2.481202282E+02  9.118800000E+01  0.00000E+00  9.000E+00
     -13     1     3     3     0     0 -7.631245174E+00  2.299913538E+01 -2.163780269E+01  3.248694828E+01  1.057000000E-01  0.00000E+00  9.000E+00
      13     1     3     3     0     0 -4.600188955E+00 -6.965571850E+01 -2.040211249E+02  2.156332800E+02  1.057000000E-01  0.00000E+00  9.000E+00
       2     1     1     2   501     0 -2.489890137E+01 -1.465195594E+01 -7.777898505E+01  8.297176940E+01  3.300000000E-01  0.00000E+00  9.000E+00
       2     1     1     2   512     0 -2.770066092E+00 -6.025734547E-01 -8.981956589E+02  8.982001932E+02  3.300000000E-01  0.00000E+00  9.000E+00
      21     1     1     2   502   512  3.990040159E+01  6.191111252E+01 -5.510419452E+02  5.559426709E+02  1.321449896E-05  0.00000E+00  9.000E+00
</event>
<event>
      8  10001  1.13063E-02  5.89097E+01 -1.00000E+00  1.37992E-01
       1    -1     0     0   501     0  0.000000000E+00  0.000000000E+00  1.843140537E+02  1.843140537E+02  0.000000000E+00  0.00000E+00  9.000E+00
      -1    -1     0     0     0   502  0.000000000E+00  0.000000000E+00 -9.986201507E+01  9.986201507E+01  0.000000000E+00  0.00000E+00  9.000E+00
      23     2     1     2     0     0  2.397139164E+01  2.598708760E+01  3.268553936E+01  1.031191164E+02  9.118800000E+01  0.00000E+00  9.000E+00
     -13     1     3     3     0     0  3.249880543E+01  5.503595349E+01  8.720829785E+00  6.450730637E+01  1.057000000E-01  0.00000E+00  9.000E+00
      13     1     3     3     0     0 -8.527413792E+00 -2.904886589E+01  2.396470957E+01  3.861181002E+01  1.057000000E-01  0.00000E+00  9.000E+00
       2     1     1     2   511     0  3.055594517E+01 -3.944827029E+01  2.005418834E+01  5.377835238E+01  3.300000000E-01  0.00000E+00  9.000E+00
      -2     1     1     2     0   502 -6.321948075E+01  2.260473237E+01  6.391187073E+01  9.269580784E+01  3.300000000E-01  0.00000E+00  9.000E+00
      21     1     1     2   501   511  8.692143938E+00 -9.143549676E+00 -3.219955976E+01  3.458279219E+01  1.719260824E-06  0.00000E+00  9.000E+00
</event>
<event>
      8  10001  1.10823E-02  3.83882E+02 -1.00000E+00  1.03835E-01
      -3    -1     0     0     0   501  0.000000000E+00  0.000000000E+00  9.984294372E+01  9.984294372E+01  0.000000000E+00  0.00000E+00  9.000E+00
       2    -1     0     0   502     0  0.000000000E+00  0.000000000E+00 -6.477598071E+02  6.477598071E+02  0.000000000E+00  0.00000E+00  9.000E+00
      23     2     1     2     0     0  1.004565696E+02 -3.164007250E+00 -9.312381028E+01  1.645868425E+02  9.118800000E+01  0.00000E+00  9.000E+00
     -13     1     3     3     0     0  4.781683570E+01 -1.080596545E+01 -9.959177553E+01  1.110033855E+02  1.057000000E-01  0.00000E+00  9.000E+00
      13     1     3     3     0     0  5.263973393E+01  7.641958201E+00  6.467965244E+00  5.358345696E+01  1.057000000E-01  0.00000E+00  9.000E+00
      -3     1     1     2     0   511  3.760169939E+00  1.680737747E+00  2.520636635E+01  2.554554094E+01  5.000000000E-01  0.00000E+00  9.000E+00
       2     1     1     2   502     0 -5.751954957E+01  4.974449670E+01 -3.357508094E+00  7.612092548E+01  3.300000000E-01  0.00000E+00  9.000E+00
      21     1     1     2   511   501 -4.669718999E+01 -4.826122720E+01 -4.766419114E+02  4.813494420E+02  1.525878906E-05  0.00000E+00  9.000E+00
</event>
<event>
      8  10001  1.11169E-02  3.17644E+02 -1.00000E+00  1.06485E-01
       3    -1     0     0   501     0  0.000000000E+00  0.000000000E+00  4.257770511E+02  4.257770511E+02  0.000000000E+00  0.00000E+00  9.000E+00
      -1    -1     0     0     0   502  0.000000000E+00  0.000000000E+00 -1.805464666E+02  1.805464666E+02  0.000000000E+00  0.00000E+00  9.000E+00
      23     2     1     2     0     0  1.679690877E+02 -1.043093061E+01  2.406712831E+02  3.075066448E+02  9.118800000E+01  0.00000E+00  9.000E+00
     -13     1     3     3     0     0  1.307226659E+02 -4.727442968E+01  1.762613122E+02  2.244801738E+02  1.057000000E-01  0.00000E+00  9.000E+00
      13     1     3     3     0     0  3.724642181E+01  3.684349907E+01  6.440997093E+01  8.302647101E+01  1.057000000E-01  0.00000E+00  9.000E+00
       3     1     1     2   511     0 -3.912067853E+01 -3.624150774E+00  4.979961132E+01  6.343353407E+01  5.000000000E-01  0.00000E+00  9.000E+00
      -1     1     1     2     0   502 -4.826930163E+01 -4.496885983E+01  6.079450771E+01  8.971178797E+01  3.300000000E-01  0.00000E+00  9.000E+00
      21     1     1     2   501   511 -8.057910751E+01  5.902394122E+01 -1.060348176E+02  1.456715509E+02  4.264961200E-06  0.00000E+00  9.000E+00
</event>
<event>
      8  10001  1.71117E-02  5.52108E+01 -1.00000E+00  1.39592E-01
       2    -1     0     0   501     0  0.000000000E+00  0.000000000E+00  1.729070269E+02  1.729070269E+02  0.000000000E+00  0.00000E+00  9.000E+00
      -2    -1     0     0     0   502  0.000000000E+00  0.000000000E+00 -2.673925716E+02  2.673925716E+02  0.000000000E+00  0.00000E+00  9.000E+00
      23     2     1     2     0     0 -1.860702588E+01 -8.980143015E+01 -2.322186788E+02  2.658030933E+02  9.118800000E+01  0.00000E+00  9.000E+00
     -13     1     3     3     0     0  2.439573834E+01  5.229907612E+00 -4.145680942E+01  4.838576447E+01  1.057000000E-01  0.00000E+00  9.000E+00
      13     1     3     3     0     0 -4.300276422E+01 -9.503133776E+01 -1.907618694E+02  2.174173288E+02  1.057000000E-01  0.00000E+00  9.000E+00
       1     1     1     2   501     0  1.587698479E+01  7.185748677E+01  9.559792424E+01  1.206426503E+02  3.300000000E-01  0.00000E+00  9.000E+00
      -1     1     1     2     0   511  1.097351750E+00 -7.682613961E+00  8.155194940E+00  1.126245278E+01  3.300000000E-01  0.00000E+00  9.000E+00
      21     1     1     2   511   502  1.632689335E+00  2.562655733E+01  3.398001497E+01  4.259140209E+01  1.784161275E-06  0.00000E+00  9.000E+00
</event>
<event>
      8  10001  1.10177E-02  1.61536E+02 -1.00000E+00  1.17187E-01
       2    -1     0     0   501     0  0.000000000E+00  0.000000000E+00  5.927388916E+02  5.927388916E+02  0.000000000E+00  0.00000E+00  9.000E+00
       1    -1     0     0   502     0  0.000000000E+00  0.000000000E+00 -1.200513805E+02  1.200513805E+02  0.000000000E+00  0.00000E+00  9.000E+00
      23     2     1     2     0     0  8.597785790E+01  1.502264927E+01 -2.262969286E+01  1.282389425E+02  9.118800000E+01  0.00000E+00  9.000E+00
     -13     1     3     3     0     0  5.828602065E+01  3.651963163E+01  2.132911286E+01  7.201309551E+01  1.057000000E-01  0.00000E+00  9.000E+00
      13     1     3     3     0     0  2.769183725E+01 -2.149698236E+01 -4.395880572E+01  5.622584703E+01  1.057000000E-01  0.00000E+00  9.000E+00
       1     1     1     2   512     0 -5.357075889E+01 -4.587678826E+01  2.624389326E+02  2.717513719E+02  3.300000000E-01  0.00000E+00  9.000E+00
       2     1     1     2   502     0 -6.036046179E+01  2.857633566E+01  2.631739865E+02  2.715154662E+02  3.300000000E-01  0.00000E+00  9.000E+00
      21     1     1     2   501   512  2.795336277E+01  2.277803327E+00 -3.029571509E+01  4.128449141E+01  2.158972058E-06  0.00000E+00  9.000E+00
</event>
<event>
      8  10001  1.10016E-02  4.42903E+02 -1.00000E+00  1.01921E-01
       3    -1     0     0   501     0  0.000000000E+00  0.000000000E+00  6.517212319E+01  6.517212319E+01  0.000000000E+00  0.00000E+00  9.000E+00
       2    -1     0     0   502     0  0.000000000E+00  0.000000000E+00 -1.487493887E+03  1.487493887E+03  0.000000000E+00  0.00000E+00  9.000E+00
      23     2     1     2     0     0  1.210016822E+02 -5.140454833E+00 -1.761408023E+02  2.323976440E+02  9.118800000E+01  0.00000E+00  9.000E+00
     -13     1     3     3     0     0  1.122453350E+02 -3.560359484E+01 -1.534039620E+02  1.933892912E+02  1.057000000E-01  0.00000E+00  9.000E+00
      13     1     3     3     0     0  8.756347175E+00  3.046314001E+01 -2.273684030E+01  3.900835288E+01  1.057000000E-01  0.00000E+00  9.000E+00
       4     1     1     2   511     0  1.803601766E+01 -5.300044164E+01 -2.722651991E+00  5.607145068E+01  1.500000000E+00  0.00000E+00  9.000E+00
       1     1     1     2   502     0 -8.136879747E+01  3.282013394E+01 -1.947818790E+02  2.136308304E+02  3.300000000E-01  0.00000E+00  9.000E+00
      21     1     1     2   501   511 -5.766890237E+01  2.532076254E+01 -1.048676430E+03  1.050566085E+03  3.051757813E-05  0.00000E+00  9.000E+00
</event>
<event>
      8  10001  5.18624E-02  1.13668E+01 -1.00000E+00  1.95345E-01
       2    -1     0     0   501     0  0.000000000E+00  0.000000000E+00  6.875392619E+02  6.875392619E+02  0.000000000E+00  0.00000E+00  9.000E+00
      -2    -1     0     0     0   502  0.000000000E+00  0.000000000E+00 -7.670756470E+01  7.670756470E+01  0.000000000E+00  0.00000E+00  9.000E+00
      23     2     1     2     0     0  1.912179922E+02  7.844246777E+01  2.798437743E+02  3.596461187E+02  9.118800000E+01  0.00000E+00  9.000E+00
     -13     1     3     3     0     0  2.429880859E+01  1.678646056E+00  9.861751827E+01  1.015808842E+02  1.057000000E-01  0.00000E+00  9.000E+00
      13     1     3     3     0     0  1.669191836E+02  7.676382171E+01  1.812262561E+02  2.580652345E+02  1.057000000E-01  0.00000E+00  9.000E+00
       2     1     1     2   511     0  8.323551335E-01 -3.464413801E-01  6.668225306E+01  6.668916412E+01  3.300000000E-01  0.00000E+00  9.000E+00
      -2     1     1     2     0   502 -1.849936721E+02 -8.208287948E+01  2.526920263E+02  3.237493272E+02  3.300000000E-01  0.00000E+00  9.000E+00
      21     1     1     2   501   511 -7.056675285E+00  3.986853090E+00  1.161364348E+01  1.416221658E+01  7.348554138E-07  0.00000E+00  9.000E+00
</event>
<event>
      8  10001  1.05333E-02  1.07885E+03 -1.00000E+00  9.14522E-02
       2    -1     0     0   501     0  0.000000000E+00  0.000000000E+00  4.565303428E+02  4.565303428E+02  0.000000000E+00  0.00000E+00  9.000E+00
       1    -1     0     0   502     0  0.000000000E+00  0.000000000E+00 -1.917253279E+03  1.917253279E+03  0.000000000E+00  0.00000E+00  9.000E+00
      23     2     1     2     0     0 -2.622545033E+02  6.807625919E+02 -3.558140380E+02  8.167827202E+02  9.118800000E+01  0.00000E+00  9.000E+00
     -13     1     3     3     0     0 -1.408895391E+02  2.848912583E+02 -1.162633953E+02  3.384229300E+02  1.057000000E-01  0.00000E+00  9.000E+00
      13     1     3     3     0     0 -1.213649642E+02  3.958713337E+02 -2.395506427E+02  4.783597903E+02  1.057000000E-01  0.00000E+00  9.000E+00
       1     1     1     2   511     0 -2.872481309E+01 -1.100985226E+01  6.976696637E+00  3.154544230E+01  3.300000000E-01  0.00000E+00  9.000E+00
       2     1     1     2   502     0  3.148333509E+02 -8.189550196E+01 -7.587303585E+01  3.340415222E+02  3.300000000E-01  0.00000E+00  9.000E+00
      21     1     1     2   501   511 -2.385403443E+01 -5.878572377E+02 -1.036012559E+03  1.191413937E+03  1.525878906E-05  0.00000E+00  9.000E+00
</event>
<event>
      8  10001  1.52800E-02  3.21995E+01 -1.00000E+00  1.54537E-01
      -4    -1     0     0     0   501  0.000000000E+00  0.000000000E+00  2.831303498E+02  2.831303498E+02  0.000000000E+00  0.00000E+00  9.000E+00
      -4    -1     0     0     0   502  0.000000000E+00  0.000000000E+00 -1.112731776E+02  1.112731776E+02  0.000000000E+00  0.00000E+00  9.000E+00
      23     2     1     2     0     0  1.213237165E+02 -1.041091049E+02  1.239065714E+02  2.218698711E+02  9.118800000E+01  0.00000E+00  9.000E+00
     -13     1     3     3     0     0 -2.779903346E+00 -4.370210489E+01  1.582078696E+01  4.656082373E+01  1.057000000E-01  0.00000E+00  9.000E+00
      13     1     3     3     0     0  1.241036198E+02 -6.040700004E+01  1.080857845E+02  1.753090474E+02  1.057000000E-01  0.00000E+00  9.000E+00
      -4     1     1     2     0   511 -7.033768437E-01 -4.275311477E-01  6.227795572E+00  6.458557080E+00  1.500000000E+00  0.00000E+00  9.000E+00
      -4     1     1     2     0   502 -1.106294851E+02  8.995230731E+01  4.105253291E+01  1.483841670E+02  1.500000000E+00  0.00000E+00  9.000E+00
      21     1     1     2   511   501 -9.990854513E+00  1.458432877E+01  6.702723034E-01  1.769093227E+01  1.310179884E-06  0.00000E+00  9.000E+00
</event>
<event>
      8  10001  1.23351E-02  3.65291E+01 -1.00000E+00  1.50752E-01
       3    -1     0     0   501     0  0.000000000E+00  0.000000000E+00  2.114531952E+02  2.114531952E+02  0.000000000E+00  0.00000E+00  9.000E+00
      21    -1     0     0   511   502  0.000000000E+00  0.000000000E+00 -6.127273928E+02  6.127273928E+02  0.000000000E+00  0.00000E+00  9.000E+00
      23     2     1     2     0     0  1.020633438E+02  6.095908988E+01 -8.130129142E+00  1.500476162E+02  9.118800000E+01  0.00000E+00  9.000E+00
     -13     1     3     3     0     0 -1.427593778E+01  9.660595639E+00 -1.480869603E+01  2.272527575E+01  1.057000000E-01  0.00000E+00  9.000E+00
      13     1     3     3     0     0  1.163392816E+02  5.129849424E+01  6.678566884E+00  1.273223405E+02  1.057000000E-01  0.00000E+00  9.000E+00
       3     1     1     2   501     0 -1.409482940E+02 -8.030371339E+01  7.505736973E+01  1.787427389E+02  5.000000000E-01  0.00000E+00  9.000E+00
      -3     1     1     2     0   502  3.332112025E+01 -1.675799629E+01 -4.550296124E+02  4.565559393E+02  5.000000000E-01  0.00000E+00  9.000E+00
       3     1     1     2   511     0  5.563829926E+00  3.610261980E+01 -1.317182577E+01  3.883429353E+01  5.000000000E-01  0.00000E+00  9.000E+00
</event>
<event>
      8  10001  1.11183E-02  6.79041E+01 -1.00000E+00  1.34614E-01
       2    -1     0     0   501     0  0.000000000E+00  0.000000000E+00  1.835379427E+03  1.835379427E+03  0.000000000E+00  0.00000E+00  9.000E+00
       3    -1     0     0   502     0  0.000000000E+00  0.000000000E+00 -3.514332041E+01  3.514332041E+01  0.000000000E+00  0.00000E+00  9.000E+00
      23     2     1     2     0     0  5.359190036E+01 -3.212064477E+01  1.481732326E+03  1.485849846E+03  9.118800000E+01  0.00000E+00  9.000E+00
     -13     1     3     3     0     0  1.768589591E+01  2.594593829E+01  2.152014876E+02  2.174802843E+02  1.057000000E-01  0.00000E+00  9.000E+00
      13     1     3     3     0     0  3.590600445E+01 -5.806658306E+01  1.266530838E+03  1.268369561E+03  1.057000000E-01  0.00000E+00  9.000E+00
       1     1     1     2   501     0 -4.962619756E+01  5.824409535E+01  2.599646898E+01  8.081497032E+01  3.300000000E-01  0.00000E+00  9.000E+00
       4     1     1     2   511     0 -8.758065763E+00 -3.002590993E+01  3.784127064E+01  4.911690897E+01  1.500000000E+00  0.00000E+00  9.000E+00
      21     1     1     2   502   511  4.792362970E+00  3.902459343E+00  2.546660415E+02  2.547410226E+02  0.000000000E+00  0.00000E+00  9.000E+00
</event>
<event>
      8  10001  1.37987E-02  6.59951E+01 -1.00000E+00  1.35278E-01
       2    -1     0     0   501     0  0.000000000E+00  0.000000000E+00  6.724766585E+02  6.724766585E+02  0.000000000E+00  0.00000E+00  9.000E+00
       4    -1     0     0   502     0  0.000000000E+00  0.000000000E+00 -4.096473920E+01  4.096473920E+01  0.000000000E+00  0.00000E+00  9.000E+00
      23     2     1     2     0     0 -3.198080865E+01 -2.765471598E+01  7.975692696E+01  1.283120188E+02  9.118800000E+01  0.00000E+00  9.000E+00
     -13     1     3     3     0     0 -1.161185008E+01  2.630633916E+01  6.137304669E+01  6.777551604E+01  1.057000000E-01  0.00000E+00  9.000E+00
      13     1     3     3     0     0 -2.036895857E+01 -5.396105514E+01  1.838388027E+01  6.053650280E+01  1.057000000E-01  0.00000E+00  9.000E+00
       2     1     1     2   512     0  1.153418523E+01  1.479474782E+01  1.506479560E+01  2.406198160E+01  3.300000000E-01  0.00000E+00  9.000E+00
       4     1     1     2   502     0  5.228152586E+01  1.369702364E+01  5.240067605E+02  5.267886687E+02  1.500000000E+00  0.00000E+00  9.000E+00
      21     1     1     2   501   512 -3.183490244E+01 -8.370554800E-01  1.268343618E+01  3.427872851E+01  1.261592536E-06  0.00000E+00  9.000E+00
</event>
<event>
      8  10001  1.06341E-02  1.87677E+02 -1.00000E+00  1.14628E-01
      -3    -1     0     0     0   501  0.000000000E+00  0.000000000E+00  5.263625797E+02  5.263625797E+02  0.000000000E+00  0.00000E+00  9.000E+00
      -2    -1     0     0     0   502  0.000000000E+00  0.000000000E+00 -2.752362214E+02  2.752362214E+02  0.000000000E+00  0.00000E+00  9.000E+00
      23     2     1     2     0     0 -9.205458364E+01  3.199307500E+02  1.623271921E+02  3.814381992E+02  9.118800000E+01  0.00000E+00  9.000E+00
     -13     1     3     3     0     0 -2.468118801E+01  8.967943364E+00  1.931155385E+01  3.259650801E+01  1.057000000E-01  0.00000E+00  9.000E+00
      13     1     3     3     0     0 -6.737339563E+01  3.109628066E+02  1.430156383E+02  3.488416912E+02  1.057000000E-01  0.00000E+00  9.000E+00
      -4     1     1     2     0   501 -4.081927921E+01 -1.541037560E+02 -9.891221688E+00  1.597318610E+02  1.500000000E+00  0.00000E+00  9.000E+00
      -1     1     1     2     0   511  5.163387229E+01 -1.801136756E+01 -1.538018543E+01  5.680779113E+01  3.300000000E-01  0.00000E+00  9.000E+00
      21     1     1     2   511   502  8.123999056E+01 -1.478156265E+02  1.140705732E+02  2.036209498E+02  2.336015456E-06  0.00000E+00  9.000E+00
</event>
<event>
      8  10001  2.60124E-02  2.86841E+02 -1.00000E+00  1.07970E-01
       2    -1     0     0   501     0  0.000000000E+00  0.000000000E+00  3.058925306E+02  3.058925306E+02  0.000000000E+00  0.00000E+00  9.000E+00
       2    -1     0     0   502     0  0.000000000E+00  0.000000000E+00 -7.991373229E+02  7.991373229E+02  0.000000000E+00  0.00000E+00  9.000E+00
      23     2     1     2     0     0  3.562082994E+00  2.530535829E-01  2.956060552E+02  3.093718534E+02  9.118800000E+01  0.00000E+00  9.000E+00
     -13     1     3     3     0     0  2.820285553E+01 -6.911246322E+00  2.748154420E+02  2.763452636E+02  1.057000000E-01  0.00000E+00  9.000E+00
      13     1     3     3     0     0 -2.464077253E+01  7.164299905E+00  2.079061318E+01  3.302658979E+01  1.057000000E-01  0.00000E+00  9.000E+00
       2     1     1     2   512     0 -1.713462937E+01 -1.390842840E+00 -3.695806399E+01  4.076195974E+01  3.300000000E-01  0.00000E+00  9.000E+00
       2     1     1     2   502     0  1.797354651E+01 -2.974731405E+00 -5.426851382E+01  5.724576747E+01  3.300000000E-01  0.00000E+00  9.000E+00
      21     1     1     2   501   512 -4.401000130E+00  4.112520662E+00 -6.976242697E+02  6.976502729E+02  1.705984480E-05  0.00000E+00  9.000E+00
</event>
<event>
      8  10001  1.06302E-02  2.37932E+02 -1.00000E+00  1.10804E-01
       2    -1     0     0   501     0  0.000000000E+00  0.000000000E+00  3.380635118E+02  3.380635118E+02  0.000000000E+00  0.00000E+00  9.000E+00
       1    -1     0     0   502     0  0.000000000E+00  0.000000000E+00 -3.170529204E+02  3.170529204E+02  0.000000000E+00  0.00000E+00  9.000E+00
      23     2     1     2     0     0 -8.608046790E+01 -1.453081510E+02 -9.157235463E+01  2.126618282E+02  9.118800000E+01  0.00000E+00  9.000E+00
     -13     1     3     3     0     0 -6.241884355E+01 -6.285905623E+01 -9.083784250E+01  1.268814320E+02  1.057000000E-01  0.00000E+00  9.000E+00
      13     1     3     3     0     0 -2.366162435E+01 -8.244909478E+01 -7.345121266E-01  8.578039623E+01  1.057000000E-01  0.00000E+00  9.000E+00
       1     1     1     2   501     0 -3.493138964E+01  1.467558048E+02  1.166683938E+02  1.907068201E+02  3.300000000E-01  0.00000E+00  9.000E+00
       2     1     1     2   511     0  3.048021329E+01  1.722020353E+01 -1.074915679E+02  1.130492144E+02  3.300000000E-01  0.00000E+00  9.000E+00
      21     1     1     2   502   511  9.053164425E+01 -1.866785736E+01  1.034061201E+02  1.386985695E+02  1.348699152E-06  0.00000E+00  9.000E+00
</event>
<event>
      8  10001  1.05734E-02  4.01829E+02 -1.00000E+00  1.03216E-01
       2    -1     0     0   501     0  0.000000000E+00  0.000000000E+00  2.434469953E+03  2.434469953E+03  0.000000000E+00  0.00000E+00  9.000E+00
      -4    -1     0     0     0   502  0.000000000E+00  0.000000000E+00 -9.589111178E+01  9.589111178E+01  0.000000000E+00  0.00000E+00  9.000E+00
      23     2     1     2     0     0  4.266107905E+01 -1.639416316E+02  1.355935693E+03  1.369515856E+03  9.118800000E+01  0.00000E+00  9.000E+00
     -13     1     3     3     0     0  2.615481551E+01 -2.450210060E+01  1.099550969E+02  1.156484406E+02  1.057000000E-01  0.00000E+00  9.000E+00
      13     1     3     3     0     0  1.650626354E+01 -1.394395310E+02  1.245980596E+03  1.253867416E+03  1.057000000E-01  0.00000E+00  9.000E+00
       1     1     1     2   512     0  9.754100856E+01  1.030079091E+01  7.713105376E+02  7.775219669E+02  3.300000000E-01  0.00000E+00  9.000E+00
      -3     1     1     2     0   502 -7.545695838E+01  2.053311507E+02  2.057080826E+02  3.002843640E+02  5.000000000E-01  0.00000E+00  9.000E+00
      21     1     1     2   501   512 -6.474512923E+01 -5.169030995E+01  5.624528326E+00  8.303887777E+01  8.640617915E-06  0.00000E+00  9.000E+00
</event>
<event>
      8  10001  2.78220E-02  2.53957E+01 -1.00000E+00  1.62216E-01
       2    -1     0     0   501     0  0.000000000E+00  0.000000000E+00  7.930143128E+02  7.930143128E+02  0.000000000E+00  0.00000E+00  9.000E+00
      -2    -1     0     0     0   502  0.000000000E+00  0.000000000E+00 -3.662837146E+01  3.662837146E+01  0.000000000E+00  0.00000E+00  9.000E+00
      23     2     1     2     0     0 -1.025964515E+01  9.154108592E+00  3.421113355E+01  9.836010891E+01  9.118800000E+01  0.00000E+00  9.000E+00
     -13     1     3     3     0     0 -4.900550988E+01  1.844814053E+01  2.016935319E+01  5.611317019E+01  1.057000000E-01  0.00000E+00  9.000E+00
      13     1     3     3     0     0  3.874586473E+01 -9.294031940E+00  1.404178036E+01  4.224693873E+01  1.057000000E-01  0.00000E+00  9.000E+00
       2     1     1     2   501     0  1.339794869E+01 -2.107685098E+01  7.042763370E+02  7.047190975E+02  3.300000000E-01  0.00000E+00  9.000E+00
      -2     1     1     2     0   511 -8.290437216E-01  6.282633005E+00  1.929439013E+01  2.031110980E+01  3.300000000E-01  0.00000E+00  9.000E+00
      21     1     1     2   511   502 -2.309259823E+00  5.640109384E+00 -1.395919338E+00  6.252367999E+00  2.382928174E-06  0.00000E+00  9.000E+00
</event>
<event>
      8  10001  1.08652E-02  1.52464E+02 -1.00000E+00  1.18205E-01
       1    -1     0     0   501     0  0.000000000E+00  0.000000000E+00  3.900087570E+02  3.900087570E+02  0.000000000E+00  0.00000E+00  9.000E+00
       2    -1     0     0   502     0  0.000000000E+00  0.000000000E+00 -1.734709067E+02  1.734709067E+02  0.000000000E+00  0.00000E+00  9.000E+00
      23     2     1     2     0     0  4.954941015E+00 -8.834052592E-01 -1.032338489E+02  1.378325461E+02  9.118800000E+01  0.00000E+00  9.000E+00
     -13     1     3     3     0     0 -1.322675493E+01  4.052112967E+01 -3.136879774E+01  5.292373418E+01  1.057000000E-01  0.00000E+00  9.000E+00
      13     1     3     3     0     0  1.818169594E+01 -4.140453493E+01 -7.186505120E+01  8.490881189E+01  1.057000000E-01  0.00000E+00  9.000E+00
       1     1     1     2   501     0 -4.154207529E+01  3.618229025E+01  2.386663678E+02  2.449421282E+02  3.300000000E-01  0.00000E+00  9.000E+00
       2     1     1     2   512     0  4.012223195E+01  2.454042408E+01  1.058699652E+02  1.158472458E+02  3.300000000E-01  0.00000E+00  9.000E+00
      21     1     1     2   502   512 -3.535097667E+00 -5.983930907E+01 -2.476463381E+01  6.485774366E+01  8.259061849E-07  0.00000E+00  9.000E+00
</event>
<event>
      8  10001  1.09802E-02  2.60813E+02 -1.00000E+00  1.09394E-01
      -2    -1     0     0     0   501  0.000000000E+00  0.000000000E+00  5.347221056E+02  5.347221056E+02  0.000000000E+00  0.00000E+00  9.000E+00
       2    -1     0     0   502     0  0.000000000E+00  0.000000000E+00 -9.415406424E+01  9.415406424E+01  0.000000000E+00  0.00000E+00  9.000E+00
      23     2     1     2     0     0  3.879371363E+01  8.094381482E+01  7.364554287E+01  1.476339077E+02  9.118800000E+01  0.00000E+00  9.000E+00
     -13     1     3     3     0     0  1.162401597E+01  9.506793975E+01  4.546830907E+01  1.060207962E+02  1.057000000E-01  0.00000E+00  9.000E+00
      13     1     3     3     0     0  2.716969765E+01 -1.412412493E+01  2.817723380E+01  4.161311155E+01  1.057000000E-01  0.00000E+00  9.000E+00
      -2     1     1     2     0   511 -5.958497024E+00 -4.269026215E+00  1.018929881E+02  1.021568313E+02  3.300000000E-01  0.00000E+00  9.000E+00
       2     1     1     2   502     0  5.414077519E+01 -3.845084227E+01  2.756064578E+02  2.834937730E+02  3.300000000E-01  0.00000E+00  9.000E+00
      21     1     1     2   511   501 -8.697599179E+01 -3.822394633E+01 -1.057694745E+01  9.559165779E+01  2.749577187E-06  0.00000E+00  9.000E+00
</event>
<event>
      8  10001  1.05565E-02  1.23770E+03 -1.00000E+00  9.00283E-02
       1    -1     0     0   501     0  0.000000000E+00  0.000000000E+00  3.303037914E+02  3.303037914E+02  0.000000000E+00  0.00000E+00  9.000E+00
       2    -1     0     0   502     0  0.000000000E+00  0.000000000E+00 -1.789382241E+03  1.789382241E+03  0.000000000E+00  0.00000E+00  9.000E+00
      23     2     1     2     0     0  3.240603870E+02 -3.165618596E+02 -6.985746801E+02  8.375848497E+02  9.118800000E+01  0.00000E+00  9.000E+00
     -13     1     3     3     0     0  2.110997639E+02 -2.111193087E+02 -3.777609220E+02  4.814953771E+02  1.057000000E-01  0.00000E+00  9.000E+00
      13     1     3     3     0     0  1.129606231E+02 -1.054425509E+02 -3.208137580E+02  3.560894725E+02  1.057000000E-01  0.00000E+00  9.000E+00
       2     1     1     2   501     0  3.347819026E+01 -1.886162107E+02 -2.153117698E+02  2.881946066E+02  3.300000000E-01  0.00000E+00  9.000E+00
       1     1     1     2   511     0 -8.195466065E+00 -1.583972917E+01 -3.303630687E+02  3.308442666E+02  3.300000000E-01  0.00000E+00  9.000E+00
      21     1     1     2   502   511 -3.493431112E+02  5.210177995E+02 -2.148289311E+02  6.630623096E+02  1.727177646E-05  0.00000E+00  9.000E+00
</event>
<event>
      8  10001  1.55378E-01  1.03132E+02 -1.00000E+00  1.25593E-01
       1    -1     0     0   501     0  0.000000000E+00  0.000000000E+00  2.178628717E+02  2.178628717E+02  0.000000000E+00  0.00000E+00  9.000E+00
       2    -1     0     0   502     0  0.000000000E+00  0.000000000E+00 -2.270754670E+02  2.270754670E+02  0.000000000E+00  0.00000E+00  9.000E+00
      23     2     1     2     0     0 -9.371037181E-01 -1.094683434E+02  1.457904204E+02  2.038487047E+02  9.118800000E+01  0.00000E+00  9.000E+00
     -13     1     3     3     0     0  4.016367590E+01 -2.890539466E+01  7.070463449E+01  8.630063275E+01  1.057000000E-01  0.00000E+00  9.000E+00
      13     1     3     3     0     0 -4.110077962E+01 -8.056294869E+01  7.508578593E+01  1.175480719E+02  1.057000000E-01  0.00000E+00  9.000E+00
       2     1     1     2   512     0 -1.086133269E+00 -2.674951739E+01  5.016802429E+00  2.723955897E+01  3.300000000E-01  0.00000E+00  9.000E+00
       1     1     1     2   502     0  1.103347240E+00  1.130325368E+02 -1.056008765E+02  1.546907423E+02  3.300000000E-01  0.00000E+00  9.000E+00
      21     1     1     2   501   512  9.198897480E-01  2.318532395E+01 -5.441894161E+01  5.915933274E+01  2.697398305E-06  0.00000E+00  9.000E+00
</event>
<event>
      8  10001  1.15794E-02  1.46772E+02 -1.00000E+00  1.18885E-01
       2    -1     0     0   501     0  0.000000000E+00  0.000000000E+00  1.463090055E+02  1.463090055E+02  0.000000000E+00  0.00000E+00  9.000E+00
       2    -1     0     0   502     0  0.000000000E+00  0.000000000E+00 -3.573797311E+02  3.573797311E+02  0.000000000E+00  0.00000E+00  9.000E+00
      23     2     1     2     0     0 -1.752420692E+00 -2.642493457E+00  1.032569132E+02  1.377943947E+02  9.118800000E+01  0.00000E+00  9.000E+00
     -13     1     3     3     0     0  1.957171177E+01  3.426973534E+01  1.996544938E+01  4.422778542E+01  1.057000000E-01  0.00000E+00  9.000E+00
      13     1     3     3     0     0 -2.132413246E+01 -3.691222880E+01  8.329146378E+01  9.356660928E+01  1.057000000E-01  0.00000E+00  9.000E+00
       2     1     1     2   511     0 -2.075857242E+01 -1.431870464E+00  1.638654834E+01  2.648766597E+01  3.300000000E-01  0.00000E+00  9.000E+00
       2     1     1     2   502     0  2.775652488E+01  3.486496477E+01 -2.135508945E+02  2.181515159E+02  3.300000000E-01  0.00000E+00  9.000E+00
      21     1     1     2   501   511 -5.245531762E+00 -3.079060085E+01 -1.171632926E+02  1.212551600E+02  5.394796609E-06  0.00000E+00  9.000E+00
</event>
<event>
      8  10001  1.13991E-02  2.94847E+02 -1.00000E+00  1.07565E-01
       1    -1     0     0   501     0  0.000000000E+00  0.000000000E+00  7.865526077E+02  7.865526077E+02  0.000000000E+00  0.00000E+00  9.000E+00
      -1    -1     0     0     0   502  0.000000000E+00  0.000000000E+00 -1.143963867E+02  1.143963867E+02  0.000000000E+00  0.00000E+00  9.000E+00
      23     2     1     2     0     0  7.017111771E+01  2.452296287E+00  5.780029574E+02  5.893493612E+02  9.118800000E+01  0.00000E+00  9.000E+00
     -13     1     3     3     0     0  6.955900447E+01 -3.182079804E+01  4.654089697E+02  4.716529853E+02  1.057000000E-01  0.00000E+00  9.000E+00
      13     1     3     3     0     0  6.121132378E-01  3.427309432E+01  1.125939876E+02  1.176963759E+02  1.057000000E-01  0.00000E+00  9.000E+00
       2     1     1     2   511     0  3.508191475E+01  4.324743269E+01  1.114639679E+02  1.246009880E+02  3.300000000E-01  0.00000E+00  9.000E+00
      -2     1     1     2     0   502 -2.271971138E+01  3.815845056E+01 -4.800808218E+01  6.539982789E+01  3.300000000E-01  0.00000E+00  9.000E+00
      21     1     1     2   501   511 -8.253332109E+01 -8.385817954E+01  3.069737792E+01  1.215988173E+02  1.651812370E-06  0.00000E+00  9.000E+00
</event>
<event>
      8  10001  1.83233E-02  1.75523E+01 -1.00000E+00  1.75873E-01
      -2    -1     0     0     0   501  0.000000000E+00  0.000000000E+00  2.081216687E+02  2.081216687E+02  0.000000000E+00  0.00000E+00  9.000E+00
      -2    -1     0     0     0   502  0.000000000E+00  0.000000000E+00 -4.665070173E+01  4.665070173E+01  0.000000000E+00  0.00000E+00  9.000E+00
      23     2     1     2     0     0 -4.919064176E+01  2.541861838E+00  8.446813837E+01  1.337022739E+02  9.118800000E+01  0.00000E+00  9.000E+00
     -13     1     3     3     0     0  1.736933787E+01  1.792339540E+01 -1.378700595E-01  2.495941068E+01  1.057000000E-01  0.00000E+00  9.000E+00
      13     1     3     3     0     0 -6.655997964E+01 -1.538153356E+01  8.460600843E+01  1.087428632E+02  1.057000000E-01  0.00000E+00  9.000E+00
      -2     1     1     2     0   501  3.125612517E+01 -1.069451461E+01 -5.310068776E+00  3.346077904E+01  3.300000000E-01  0.00000E+00  9.000E+00
      -2     1     1     2     0   511  1.140637615E+01  1.600996631E+01  5.028693564E+01  5.399360364E+01  3.300000000E-01  0.00000E+00  9.000E+00
      21     1     1     2   511   502  6.528140440E+00 -7.857313546E+00  3.202596168E+01  3.361571382E+01  8.259061849E-07  0.00000E+00  9.000E+00
</event>
<event>
      8  10001  1.12661E-02  4.05836E+01 -1.00000E+00  1.47738E-01
       4    -1     0     0   501     0  0.000000000E+00  0.000000000E+00  4.543807871E+02  4.543807871E+02  0.000000000E+00  0.00000E+00  9.000E+00
      -4    -1     0     0     0   502  0.000000000E+00  0.000000000E+00 -7.109766429E+02  7.109766429E+02  0.000000000E+00  0.00000E+00  9.000E+00
      23     2     1     2     0     0 -2.779256540E+02  4.638358099E+02  1.583769028E+00  5.483649217E+02  9.118800000E+01  0.00000E+00  9.000E+00
     -13     1     3     3     0     0 -1.404019764E+02  2.693685553E+02 -4.064070258E+01  3.064699193E+02  1.057000000E-01  0.00000E+00  9.000E+00
      13     1     3     3     0     0 -1.375236776E+02  1.944672546E+02  4.222447161E+01  2.418950024E+02  1.057000000E-01  0.00000E+00  9.000E+00
       3     1     1     2   512     0 -5.613747503E+00 -1.332101052E+01  1.212998338E+01  1.887723441E+01  5.000000000E-01  0.00000E+00  9.000E+00
      -3     1     1     2     0   502  2.632524765E+02 -4.217171940E+02 -2.618692036E+02  5.618923277E+02  5.000000000E-01  0.00000E+00  9.000E+00
      21     1     1     2   501   512  2.028692496E+01 -2.879760536E+01 -8.440404656E+00  3.622294618E+01  3.106311374E-06  0.00000E+00  9.000E+00
</event>
<event>
      8  10001  1.26044E-02  1.53759E+02 -1.00000E+00  1.18055E-01
      -1    -1     0     0     0   501  0.000000000E+00  0.000000000E+00  4.584756236E+02  4.584756236E+02  0.000000000E+00  0.00000E+00  9.000E+00
       2    -1     0     0   502     0  0.000000000E+00  0.000000000E+00 -1.481939719E+02  1.481939719E+02  0.000000000E+00  0.00000E+00  9.000E+00
      23     2     1     2     0     0  8.823122803E+00  2.067046190E+01 -7.140061727E+01  1.179763323E+02  9.118800000E+01  0.00000E+00  9.000E+00
     -13     1     3     3     0     0 -2.495295313E+01  1.323210160E+01 -7.783152899E+01  8.279792546E+01  1.057000000E-01  0.00000E+00  9.000E+00
      13     1     3     3     0     0  3.377607593E+01  7.438360304E+00  6.430911722E+00  3.517840684E+01  1.057000000E-01  0.00000E+00  9.000E+00
      -1     1     1     2     0   501 -1.072795633E+01  1.652867026E+01  3.625670289E+02  3.631022519E+02  3.300000000E-01  0.00000E+00  9.000E+00
       2     1     1     2   511     0  1.240511850E+00 -3.855128211E+01  6.719956088E+01  7.748309560E+01  3.300000000E-01  0.00000E+00  9.000E+00
      21     1     1     2   502   511  6.643216806E-01  1.352149947E+00 -4.808432084E+01  4.810791560E+01  3.989505894E-06  0.00000E+00  9.000E+00
</event>
<event>
      8  10001  1.05333E-02  6.08715E+02 -1.00000E+00  9.79130E-02
       1    -1     0     0   501     0  0.000000000E+00  0.000000000E+00  5.754087872E+02  5.754087872E+02  0.000000000E+00  0.00000E+00  9.000E+00
      -2    -1     0     0     0   502  0.000000000E+00  0.000000000E+00 -1.413024627E+03  1.413024627E+03  0.000000000E+00  0.00000E+00  9.000E+00
      23     2     1     2     0     0 -3.683967488E+02 -6.164641452E+02 -3.990081283E+02  8.265996278E+02  9.118800000E+01  0.00000E+00  9.000E+00
     -13     1     3     3     0     0 -1.567062465E+02 -1.794440395E+02 -1.374803406E+02  2.750597503E+02  1.057000000E-01  0.00000E+00  9.000E+00
      13     1     3     3     0     0 -2.116905023E+02 -4.370201057E+02 -2.615277877E+02  5.515398775E+02  1.057000000E-01  0.00000E+00  9.000E+00
       1     1     1     2   512     0 -7.064688304E+01 -1.741791126E+01  1.560107285E+02  1.721447706E+02  3.300000000E-01  0.00000E+00  9.000E+00
      -2     1     1     2     0   502  2.804540897E+02  2.870120231E+02 -3.768348177E+02  5.504861366E+02  3.300000000E-01  0.00000E+00  9.000E+00
      21     1     1     2   501   512  1.585895421E+02  3.468700334E+02 -2.177836223E+02  4.392028792E+02  1.044697871E-05  0.00000E+00  9.000E+00
</event>
<event>
      8  10001  1.27144E-02  5.12920E+01 -1.00000E+00  1.41455E-01
       2    -1     0     0   501     0  0.000000000E+00  0.000000000E+00  2.725391636E+02  2.725391636E+02  0.000000000E+00  0.00000E+00  9.000E+00
       4    -1     0     0   502     0  0.000000000E+00  0.000000000E+00 -1.024095470E+02  1.024095470E+02  0.000000000E+00  0.00000E+00  9.000E+00
      23     2     1     2     0     0 -7.198236375E+01 -6.763069042E+01  2.086328183E+02  2.481899982E+02  9.118800000E+01  0.00000E+00  9.000E+00
     -13     1     3     3     0     0 -5.751474396E+01 -5.392898562E+01  2.135721223E+02  2.276605892E+02  1.057000000E-01  0.00000E+00  9.000E+00
      13     1     3     3     0     0 -1.446761980E+01 -1.370170480E+01 -4.939304018E+00  2.052940900E+01  1.057000000E-01  0.00000E+00  9.000E+00
       2     1     1     2   501     0  5.782626002E+01  3.668534601E+01 -3.416584918E+00  6.856728748E+01  3.300000000E-01  0.00000E+00  9.000E+00
       4     1     1     2   511     0 -3.044107819E-01 -4.480549585E+00 -1.339467043E+01  1.420687110E+01  1.500000000E+00  0.00000E+00  9.000E+00
      21     1     1     2   502   511  1.446051451E+01  3.542589400E+01 -2.169194637E+01  4.398455391E+01  1.092571186E-06  0.00000E+00  9.000E+00
</event>
<event>
      8  10001  1.79003E-02  5.17540E+01 -1.00000E+00  1.41226E-01
       2    -1     0     0   501     0  0.000000000E+00  0.000000000E+00  2.877137335E+02  2.877137335E+02  0.000000000E+00  0.00000E+00  9.000E+00
       2    -1     0     0   502     0  0.000000000E+00  0.000000000E+00 -5.367737983E+01  5.367737983E+01  0.000000000E+00  0.00000E+00  9.000E+00
      23     2     1     2     0     0  2.793830538E+01 -4.942884995E+00  2.169119995E+01  9.793232622E+01  9.118800000E+01  0.00000E+00  9.000E+00
     -13     1     3     3     0     0 -2.870002073E+01  1.216022298E+01 -7.349622454E+00  3.202483935E+01  1.057000000E-01  0.00000E+00  9.000E+00
      13     1     3     3     0     0  5.663832611E+01 -1.710310798E+01  2.904082240E+01  6.590748686E+01  1.057000000E-01  0.00000E+00  9.000E+00
       2     1     1     2   512     0 -1.778080888E+01 -7.621511770E+00  1.840241079E+01  2.670210158E+01  3.300000000E-01  0.00000E+00  9.000E+00
       2     1     1     2   502     0 -3.199242987E+01  1.367279706E+01  1.916398434E+02  1.947726865E+02  3.300000000E-01  0.00000E+00  9.000E+00
      21     1     1     2   501   512  2.183493337E+01 -1.108400298E+00  2.302899563E+00  2.198399902E+01  8.291261043E-07  0.00000E+00  9.000E+00
</event>
<event>
      8  10001  1.14860E-02  3.41980E+02 -1.00000E+00  1.05436E-01
       2    -1     0     0   501     0  0.000000000E+00  0.000000000E+00  1.944973972E+02  1.944973972E+02  0.000000000E+00  0.00000E+00  9.000E+00
      -2    -1     0     0     0   502  0.000000000E+00  0.000000000E+00 -2.625359837E+02  2.625359837E+02  0.000000000E+00  0.00000E+00  9.000E+00
      23     2     1     2     0     0  3.140223325E+01 -9.708925922E+01  7.275741150E+01  1.549881182E+02  9.118800000E+01  0.00000E+00  9.000E+00
     -13     1     3     3     0     0  1.618781204E+01 -7.293147350E+01  9.351364251E+01  1.196906746E+02  1.057000000E-01  0.00000E+00  9.000E+00
      13     1     3     3     0     0  1.521442121E+01 -2.415778573E+01 -2.075623101E+01  3.529744357E+01  1.057000000E-01  0.00000E+00  9.000E+00
       1     1     1     2   511     0  1.899644018E+01 -2.029139105E+01  2.659679977E+01  3.847211910E+01  3.300000000E-01  0.00000E+00  9.000E+00
      -1     1     1     2     0   502 -8.716924775E+00 -3.665097970E+01 -6.129914755E+01  7.195118819E+01  3.300000000E-01  0.00000E+00  9.000E+00
      21     1     1     2   501   511 -4.168174865E+01  1.540316300E+02 -1.060936502E+02  1.916219555E+02  6.468133910E-06  0.00000E+00  9.000E+00
</event>
<event>
      8  10001  1.50607E-02  1.76197E+02 -1.00000E+00  1.15691E-01
       4    -1     0     0   501     0  0.000000000E+00  0.000000000E+00  1.047430168E+02  1.047430168E+02  0.000000000E+00  0.00000E+00  9.000E+00
       2    -1     0     0   502     0  0.000000000E+00  0.000000000E+00 -4.678027210E+02  4.678027210E+02  0.000000000E+00  0.00000E+00  9.000E+00
      23     2     1     2     0     0 -4.015263709E+01 -7.961315378E+00  1.778796150E+01  1.015247740E+02  9.118800000E+01  0.00000E+00  9.000E+00
     -13     1     3     3     0     0 -5.039577667E+01 -2.188174701E+00  4.767504163E+01  6.940780346E+01  1.057000000E-01  0.00000E+00  9.000E+00
      13     1     3     3     0     0  1.024313958E+01 -5.773140677E+00 -2.988708014E+01  3.211697049E+01  1.057000000E-01  0.00000E+00  9.000E+00
       4     1     1     2   511     0  2.309732442E+00 -1.201715546E+01 -2.804084676E+01  3.063145403E+01  1.500000000E+00  0.00000E+00  9.000E+00
       2     1     1     2   502     0 -1.478370395E+01  1.133918482E+01 -3.800475814E+02  3.805041499E+02  3.300000000E-01  0.00000E+00  9.000E+00
      21     1     1     2   501   511  5.262660860E+01  8.639286011E+00  2.724076242E+01  5.988535992E+01  1.651812370E-06  0.00000E+00  9.000E+00
</event>
<event>
      8  10001  1.75805E-02  5.86499E+01 -1.00000E+00  1.38100E-01
       1    -1     0     0   501     0  0.000000000E+00  0.000000000E+00  1.333145053E+02  1.333145053E+02  0.000000000E+00  0.00000E+00  9.000E+00
      -3    -1     0     0     0   502  0.000000000E+00  0.000000000E+00 -1.674717746E+02  1.674717746E+02  0.000000000E+00  0.00000E+00  9.000E+00
      23     2     1     2     0     0  4.275783409E+01  2.551148261E+01  7.844611734E+01  1.301849177E+02  9.118800000E+01  0.00000E+00  9.000E+00
     -13     1     3     3     0     0  2.783961618E+01  1.732813051E+01 -1.438409246E+01  3.580812232E+01  1.057000000E-01  0.00000E+00  9.000E+00
      13     1     3     3     0     0  1.491821791E+01  8.183352100E+00  9.283020980E+01  9.437679536E+01  1.057000000E-01  0.00000E+00  9.000E+00
       2     1     1     2   511     0  2.450825267E+00 -5.632008513E+00 -9.055949189E+00  1.094738234E+01  3.300000000E-01  0.00000E+00  9.000E+00
      -4     1     1     2     0   502 -2.930151756E+01 -1.948332646E+01 -1.267316506E+02  1.315345589E+02  1.500000000E+00  0.00000E+00  9.000E+00
      21     1     1     2   501   511 -1.590714179E+01 -3.961476365E-01  2.318421317E+01  2.811942093E+01  0.000000000E+00  0.00000E+00  9.000E+00
</event>
<event>
      8  10001  1.53254E-02  2.67710E+01 -1.00000E+00  1.60443E-01
      -1    -1     0     0     0   501  0.000000000E+00  0.000000000E+00  7.917602012E+01  7.917602012E+01  0.000000000E+00  0.00000E+00  9.000E+00
       1    -1     0     0   502     0  0.000000000E+00  0.000000000E+00 -3.854271429E+02  3.854271429E+02  0.000000000E+00  0.00000E+00  9.000E+00
      23     2     1     2     0     0  2.790802051E+01 -3.021057114E+01 -3.472296164E+02  3.613518978E+02  9.118800000E+01  0.00000E+00  9.000E+00
     -13     1     3     3     0     0 -1.269955641E+01  2.257057658E+01 -4.544088976E+01  5.230291861E+01  1.057000000E-01  0.00000E+00  9.000E+00
      13     1     3     3     0     0  4.060757693E+01 -5.278114772E+01 -3.017887266E+02  3.090489792E+02  1.057000000E-01  0.00000E+00  9.000E+00
      -2     1     1     2     0   501 -3.352701485E+01  7.805794875E-01 -1.356779660E+01  3.617822596E+01  3.300000000E-01  0.00000E+00  9.000E+00
       2     1     1     2   511     0  2.430875333E+00  2.585590308E+01  2.159943882E+01  3.377989841E+01  3.300000000E-01  0.00000E+00  9.000E+00
      21     1     1     2   502   511  3.188119006E+00  3.574088576E+00  3.294685137E+01  3.329314084E+01  9.536743164E-07  0.00000E+00  9.000E+00
</event>
<event>
      8  10001  1.18784E-02  6.93246E+01 -1.00000E+00  1.34136E-01
       1    -1     0     0   501     0  0.000000000E+00  0.000000000E+00  5.204781867E+02  5.204781867E+02  0.000000000E+00  0.00000E+00  9.000E+00
      -3    -1     0     0     0   502  0.000000000E+00  0.000000000E+00 -5.755722507E+01  5.755722507E+01  0.000000000E+00  0.00000E+00  9.000E+00
      23     2     1     2     0     0 -1.035325410E+01 -1.128903450E+01  2.433402154E+00  9.249759435E+01  9.118800000E+01  0.00000E+00  9.000E+00
     -13     1     3     3     0     0 -1.228123274E+00 -4.993264998E+01 -9.900344045E+00  5.091960139E+01  1.057000000E-01  0.00000E+00  9.000E+00
      13     1     3     3     0     0 -9.125130830E+00  3.864361549E+01  1.233374620E+01  4.157799296E+01  1.057000000E-01  0.00000E+00  9.000E+00
       1     1     1     2   512     0  9.658123499E+00 -4.280687038E+00  1.586169881E+02  1.589687436E+02  3.300000000E-01  0.00000E+00  9.000E+00
      -3     1     1     2     0   502 -3.095876996E-01  3.860404870E+01  3.010318448E+02  3.034975947E+02  5.000000000E-01  0.00000E+00  9.000E+00
      21     1     1     2   501   512  1.004718305E+00 -2.303432717E+01  8.387266178E-01  2.307147913E+01  1.384886376E-06  0.00000E+00  9.000E+00
</event>
<event>
      8  10001  1.06883E-02  1.94504E+02 -1.00000E+00  1.14035E-01
       1    -1     0     0   501     0  0.000000000E+00  0.000000000E+00  4.401631592E+01  4.401631592E+01  0.000000000E+00  0.00000E+00  9.000E+00
       2    -1     0     0   502     0  0.000000000E+00  0.000000000E+00 -2.421054471E+03  2.421054471E+03  0.000000000E+00  0.00000E+00  9.000E+00
      23     2     1     2     0     0  1.233924285E+02 -2.634226156E+02 -1.493818901E+03  1.524607270E+03  9.118800000E+01  0.00000E+00  9.000E+00
     -13     1     3     3     0     0  1.305896459E+02 -1.873292000E+02 -1.105912083E+03  1.129241972E+03  1.057000000E-01  0.00000E+00  9.000E+00
      13     1     3     3     0     0 -7.197217458E+00 -7.609341555E+01 -3.879068186E+02  3.953652981E+02  1.057000000E-01  0.00000E+00  9.000E+00
       1     1     1     2   511     0 -2.057647055E+01  4.897504722E-01 -1.709328672E+02  1.721678976E+02  3.300000000E-01  0.00000E+00  9.000E+00
       2     1     1     2   502     0 -8.228153796E+01  1.368633448E+02 -3.721198064E+02  4.049383729E+02  3.300000000E-01  0.00000E+00  9.000E+00
      21     1     1     2   501   511 -2.053441998E+01  1.260695203E+02 -3.401665800E+02  3.633572464E+02  1.078959322E-05  0.00000E+00  9.000E+00
</event>
<event>
      8  10001  1.07250E-02  4.26204E+02 -1.00000E+00  1.02428E-01
       2    -1     0     0   501     0  0.000000000E+00  0.000000000E+00  5.788286055E+02  5.788286055E+02  0.000000000E+00  0.00000E+00  9.000E+00
       1    -1     0     0   502     0  0.000000000E+00  0.000000000E+00 -6.260662462E+02  6.260662462E+02  0.000000000E+00  0.00000E+00  9.000E+00
      23     2     1     2     0     0 -1.995132195E+02 -1.315606924E+02  3.821233675E+00  2.558194553E+02  9.118800000E+01  0.00000E+00  9.000E+00
     -13     1     3     3     0     0 -6.395894874E+01 -6.115093243E+01 -3.970673410E+01  9.698876000E+01  1.057000000E-01  0.00000E+00  9.000E+00
      13     1     3     3     0     0 -1.355542707E+02 -7.040975996E+01  4.352796777E+01  1.588306953E+02  1.057000000E-01  0.00000E+00  9.000E+00
       2     1     1     2   501     0  1.226212705E+02  2.027449640E+02  3.980770607E+02  4.632568959E+02  3.300000000E-01  0.00000E+00  9.000E+00
       1     1     1     2   511     0  2.992391012E+01 -3.980199185E+01 -2.111918784E+01  5.409036834E+01  3.300000000E-01  0.00000E+00  9.000E+00
      21     1     1     2   502   511  4.696803886E+01 -3.138227976E+01 -4.280167473E+02  4.317281321E+02  1.427329020E-05  0.00000E+00  9.000E+00
</event>
<event>
      8  10001  1.24076E-02  1.95013E+02 -1.00000E+00  1.13992E-01
       2    -1     0     0   501     0  0.000000000E+00  0.000000000E+00  1.079737252E+03  1.079737252E+03  0.000000000E+00  0.00000E+00  9.000E+00
       1    -1     0     0   502     0  0.000000000E+00  0.000000000E+00 -4.886938214E+01  4.886938214E+01  0.000000000E+00  0.00000E+00  9.000E+00
      23     2     1     2     0     0  1.057495599E+02  7.323277968E+01  1.625063297E+02  2.264278427E+02  9.118800000E+01  0.00000E+00  9.000E+00
     -13     1     3     3     0     0  6.901581517E+00 -1.658090847E+01  2.703295294E+00  1.816252546E+01  1.057000000E-01  0.00000E+00  9.000E+00
      13     1     3     3     0     0  9.884797834E+01  8.981368816E+01  1.598030344E+02  2.082653172E+02  1.057000000E-01  0.00000E+00  9.000E+00
       1     1     1     2   501     0 -1.227640909E+02 -5.068658380E+01  3.286308796E+02  3.544552380E+02  3.300000000E-01  0.00000E+00  9.000E+00
       2     1     1     2   512     0 -3.683525447E+00  2.265019859E+01  4.512241515E+01  5.062352324E+01  3.300000000E-01  0.00000E+00  9.000E+00
      21     1     1     2   502   512  2.069805646E+01 -4.519639448E+01  4.946082457E+02  4.971000305E+02  1.618438983E-05  0.00000E+00  9.000E+00
</event>
<event>
      8  10001  1.15650E-02  6.99001E+01 -1.00000E+00  1.33946E-01
       4    -1     0     0   501     0  0.000000000E+00  0.000000000E+00  2.050204319E+01  2.050204319E+01  0.000000000E+00  0.00000E+00  9.000E+00
       2    -1     0     0   502     0  0.000000000E+00  0.000000000E+00 -1.119781014E+03  1.119781014E+03  0.000000000E+00  0.00000E+00  9.000E+00
      23     2     1     2     0     0  4.556236581E+01  2.846042843E+01 -1.977604789E+02  2.242997626E+02  9.118800000E+01  0.00000E+00  9.000E+00
     -13     1     3     3     0     0 -1.688922757E+01  3.333607204E+01 -1.121961467E+02  1.182561889E+02  1.057000000E-01  0.00000E+00  9.000E+00
      13     1     3     3     0     0  6.245159337E+01 -4.875643615E+00 -8.556433223E+01  1.060435738E+02  1.057000000E-01  0.00000E+00  9.000E+00
       4     1     1     2   501     0 -5.667840352E+01  4.834527125E+00 -3.742498086E+02  3.785511634E+02  1.500000000E+00  0.00000E+00  9.000E+00
       2     1     1     2   511     0  1.243861291E+01 -1.956713706E+01 -5.222369671E+02  5.227515191E+02  3.300000000E-01  0.00000E+00  9.000E+00
      21     1     1     2   502   511 -1.322575197E+00 -1.372781850E+01 -5.031716309E+00  1.468061221E+01  1.842930893E-06  0.00000E+00  9.000E+00
</event>
<event>
      8  10001  1.07483E-02  1.81728E+02 -1.00000E+00  1.15168E-01
      -2    -1     0     0     0   501  0.000000000E+00  0.000000000E+00  1.953089473E+01  1.953089473E+01  0.000000000E+00  0.00000E+00  9.000E+00
       2    -1     0     0   502     0  0.000000000E+00  0.000000000E+00 -2.533372816E+03  2.533372816E+03  0.000000000E+00  0.00000E+00  9.000E+00
      23     2     1     2     0     0  5.007222055E+01  5.445894403E+01 -3.383690811E+02  3.581646134E+02  9.118800000E+01  0.00000E+00  9.000E+00
     -13     1     3     3     0     0  7.114844043E+01  1.588731424E+01 -1.936348790E+02  2.069033225E+02  1.057000000E-01  0.00000E+00  9.000E+00
      13     1     3     3     0     0 -2.107621989E+01  3.857162979E+01 -1.447342022E+02  1.512612909E+02  1.057000000E-01  0.00000E+00  9.000E+00
      -2     1     1     2     0   501 -9.696544932E+01  4.556911921E+01 -7.752714224E+02  7.826395916E+02  3.300000000E-01  0.00000E+00  9.000E+00
       2     1     1     2   512     0 -7.399213631E+00  1.133758960E+00 -8.506647572E+02  8.506977559E+02  3.300000000E-01  0.00000E+00  9.000E+00
      21     1     1     2   502   512  5.429244240E+01 -1.011618222E+02 -5.495366604E+02  5.614017498E+02  1.705984480E-05  0.00000E+00  9.000E+00
</event>
<event>
      8  10001  1.24148E-02  2.45529E+01 -1.00000E+00  1.63373E-01
       2    -1     0     0   501     0  0.000000000E+00  0.000000000E+00  9.862908328E+02  9.862908328E+02  0.000000000E+00  0.00000E+00  9.000E+00
      -1    -1     0     0     0   502  0.000000000E+00  0.000000000E+00 -5.419912429E+01  5.419912429E+01  0.000000000E+00  0.00000E+00  9.000E+00
      23     2     1     2     0     0  2.960696210E+01 -1.518651468E+02  1.525091673E+02  2.356138631E+02  9.118800000E+01  0.00000E+00  9.000E+00
     -13     1     3     3     0     0  3.068522525E+01 -1.598893136E+02  1.203755861E+02  2.024758468E+02  1.057000000E-01  0.00000E+00  9.000E+00
      13     1     3     3     0     0 -1.078263148E+00  8.024166835E+00  3.213358122E+01  3.313801623E+01  1.057000000E-01  0.00000E+00  9.000E+00
       2     1     1     2   511     0 -4.715265484E+00  1.478730672E+01  3.715821409E+02  3.719062980E+02  3.300000000E-01  0.00000E+00  9.000E+00
      -1     1     1     2     0   502 -1.477112525E+01  1.250121972E+02  3.852945177E+02  4.053371558E+02  3.300000000E-01  0.00000E+00  9.000E+00
      21     1     1     2   501   511 -1.012057137E+01  1.206564287E+01  2.270588260E+01  2.763264025E+01  1.011524364E-06  0.00000E+00  9.000E+00
</event>
<event>
      8  10001  2.09877E-02  9.59087E+01 -1.00000E+00  1.27070E-01
      -1    -1     0     0     0   501  0.000000000E+00  0.000000000E+00  1.275809428E+03  1.275809428E+03  0.000000000E+00  0.00000E+00  9.000E+00
      -2    -1     0     0     0   502  0.000000000E+00  0.000000000E+00 -5.756324651E+01  5.756324651E+01  0.000000000E+00  0.00000E+00  9.000E+00
      23     2     1     2     0     0  7.728872399E+01 -3.558291292E+01  1.860653187E+01  1.260997420E+02  9.118800000E+01  0.00000E+00  9.000E+00
     -13     1     3     3     0     0 -7.620234582E+00 -1.353072126E+01  3.368042676E+01  3.708814786E+01  1.057000000E-01  0.00000E+00  9.000E+00
      13     1     3     3     0     0  8.490895857E+01 -2.205219166E+01 -1.507389488E+01  8.901159409E+01  1.057000000E-01  0.00000E+00  9.000E+00
      -2     1     1     2     0   501 -9.218246427E+01  3.313896819E+01  7.673593558E+02  7.735866388E+02  3.300000000E-01  0.00000E+00  9.000E+00
      -1     1     1     2     0   511  8.785115920E+00  8.186961706E-02  2.788808649E+01  2.924105389E+01  3.300000000E-01  0.00000E+00  9.000E+00
      21     1     1     2   511   502  6.108624362E+00  2.362075109E+00  4.043922072E+02  4.044452398E+02  0.000000000E+00  0.00000E+00  9.000E+00
</event>
<event>
      8  10001  1.39849E-02  5.20593E+01 -1.00000E+00  1.41075E-01
       3    -1     0     0   501     0  0.000000000E+00  0.000000000E+00  9.907090109E+01  9.907090109E+01  0.000000000E+00  0.00000E+00  9.000E+00
      -1    -1     0     0     0   502  0.000000000E+00  0.000000000E+00 -9.060779033E+01  9.060779033E+01  0.000000000E+00  0.00000E+00  9.000E+00
      23     2     1     2     0     0 -1.753464265E+01  2.764816426E+01 -1.769455028E+01  9.848976157E+01  9.118800000E+01  0.00000E+00  9.000E+00
     -13     1     3     3     0     0  5.610703088E+00 -3.221772031E+01 -5.977926187E+00  3.324467273E+01  1.057000000E-01  0.00000E+00  9.000E+00
      13     1     3     3     0     0 -2.314534574E+01  5.986588457E+01 -1.171662409E+01  6.524508884E+01  1.057000000E-01  0.00000E+00  9.000E+00
       4     1     1     2   501     0  2.916745734E+01 -2.230544103E+01  1.262935559E+01  3.885902585E+01  1.500000000E+00  0.00000E+00  9.000E+00
      -2     1     1     2     0   512 -1.814213586E+01 -4.479203342E+00 -1.442917575E+01  2.361165748E+01  3.300000000E-01  0.00000E+00  9.000E+00
      21     1     1     2   512   502  6.509321165E+00 -8.635198905E-01  2.795748120E+01  2.871824652E+01  7.539457465E-07  0.00000E+00  9.000E+00
</event>
<event>
      8  10001  1.15023E-02  7.92475E+01 -1.00000E+00  1.31129E-01
      -2    -1     0     0     0   501  0.000000000E+00  0.000000000E+00  1.928868218E+01  1.928868218E+01  0.000000000E+00  0.00000E+00  9.000E+00
       2    -1     0     0   502     0  0.000000000E+00  0.000000000E+00 -1.395520281E+03  1.395520281E+03  0.000000000E+00  0.00000E+00  9.000E+00
      23     2     1     2     0     0  1.027975083E+01  9.544466532E+01 -3.677709013E+02  3.908785548E+02  9.118800000E+01  0.00000E+00  9.000E+00
     -13     1     3     3     0     0  5.951109988E+00  1.008104996E+02 -3.700770553E+02  3.836081471E+02  1.057000000E-01  0.00000E+00  9.000E+00
      13     1     3     3     0     0  4.328640842E+00 -5.365834229E+00  2.306154005E+00  7.270407643E+00  1.057000000E-01  0.00000E+00  9.000E+00
      -2     1     1     2     0   511  1.342365504E+01 -1.752621461E+01 -1.834429762E+01  2.870513662E+01  3.300000000E-01  0.00000E+00  9.000E+00
       2     1     1     2   502     0 -1.244732253E+01 -7.943353273E+01 -6.549990101E+02  6.599154749E+02  3.300000000E-01  0.00000E+00  9.000E+00
      21     1     1     2   511   501 -1.125608334E+01  1.515082015E+00 -3.351173897E+02  3.353097967E+02  0.000000000E+00  0.00000E+00  9.000E+00
</event>
<event>
      8  10001  1.05674E-02  3.91865E+02 -1.00000E+00  1.03555E-01
      -3    -1     0     0     0   501  0.000000000E+00  0.000000000E+00  1.886846396E+02  1.886846396E+02  0.000000000E+00  0.00000E+00  9.000E+00
       2    -1     0     0   502     0  0.000000000E+00  0.000000000E+00 -1.478004794E+03  1.478004794E+03  0.000000000E+00  0.00000E+00  9.000E+00
      23     2     1     2     0     0 -1.899691574E+01  5.396262392E+01  9.992291983E+01  1.468764407E+02  9.118800000E+01  0.00000E+00  9.000E+00
     -13     1     3     3     0     0 -1.527346889E+01  4.040406617E+01  1.170214545E+02  1.247389249E+02  1.057000000E-01  0.00000E+00  9.000E+00
      13     1     3     3     0     0 -3.723446851E+00  1.355855775E+01 -1.709853466E+01  2.213751577E+01  1.057000000E-01  0.00000E+00  9.000E+00
      -3     1     1     2     0   511  4.237362299E+01  1.576209977E+02 -1.295968219E+02  2.084118257E+02  5.000000000E-01  0.00000E+00  9.000E+00
       2     1     1     2   502     0  4.669806852E+01 -2.364982331E+02 -5.857810346E+02  6.334442780E+02  3.300000000E-01  0.00000E+00  9.000E+00
      21     1     1     2   511   501 -7.007477577E+01  2.491461147E+01 -6.738652174E+02  6.779568889E+02  1.525878906E-05  0.00000E+00  9.000E+00
</event>
<event>
      8  10001  1.97202E-02  3.18779E+01 -1.00000E+00  1.54847E-01
      -3    -1     0     0     0   501  0.000000000E+00  0.000000000E+00  1.950780228E+02  1.950780228E+02  0.000000000E+00  0.00000E+00  9.000E+00
      -4    -1     0     0     0   502  0.000000000E+00  0.000000000E+00 -3.616098175E+01  3.616098175E+01  0.000000000E+00  0.00000E+00  9.000E+00
      23     2     1     2     0     0 -3.839712052E+01 -4.316207418E+01  9.346189124E+01  1.427854333E+02  9.118800000E+01  0.00000E+00  9.000E+00
     -13     1     3     3     0     0  1.107884440E+01 -2.351531993E+01  8.499613897E+01  8.888231476E+01  1.057000000E-01  0.00000E+00  9.000E+00
      13     1     3     3     0     0 -4.947596492E+01 -1.964675425E+01  8.465752271E+00  5.390311856E+01  1.057000000E-01  0.00000E+00  9.000E+00
      -3     1     1     2     0   511  8.934722498E-02 -3.178453328E-01  1.152548302E+00  1.298990442E+00  5.000000000E-01  0.00000E+00  9.000E+00
      -4     1     1     2     0   502  2.809798859E+01  2.852886138E+01  5.004240934E+01  6.410838967E+01  1.500000000E+00  0.00000E+00  9.000E+00
      21     1     1     2   511   501  1.020978471E+01  1.495105813E+01  1.426019213E+01  2.304619107E+01  1.338120956E-06  0.00000E+00  9.000E+00
</event>
<event>
      8  10001  1.22482E-02  1.29719E+02 -1.00000E+00  1.21148E-01
       1    -1     0     0   501     0  0.000000000E+00  0.000000000E+00  8.662655003E+02  8.662655003E+02  0.000000000E+00  0.00000E+00  9.000E+00
       2    -1     0     0   502     0  0.000000000E+00  0.000000000E+00 -2.996423249E+01  2.996423249E+01  0.000000000E+00  0.00000E+00  9.000E+00
      23     2     1     2     0     0 -2.591209919E+00 -1.202060202E+01  4.881572883E+02  4.967534587E+02  9.118800000E+01  0.00000E+00  9.000E+00
     -13     1     3     3     0     0  2.774089916E+01  2.609445073E+01  1.355983714E+02  1.408453313E+02  1.057000000E-01  0.00000E+00  9.000E+00
      13     1     3     3     0     0 -3.033210908E+01 -3.811505275E+01  3.525589168E+02  3.559081273E+02  1.057000000E-01  0.00000E+00  9.000E+00
       2     1     1     2   511     0  4.348913416E+01  2.358085197E+00  9.504019503E+01  1.045447891E+02  3.300000000E-01  0.00000E+00  9.000E+00
       1     1     1     2   502     0 -4.464029142E+01  1.031883821E+01  2.719109939E+02  2.757443228E+02  3.300000000E-01  0.00000E+00  9.000E+00
      21     1     1     2   501   511  3.742367177E+00 -6.563213839E-01 -1.880720940E+01  1.918716225E+01  9.536743164E-07  0.00000E+00  9.000E+00
</event>
<event>
      8  10001  1.07105E-02  1.18488E+02 -1.00000E+00  1.22864E-01
       2    -1     0     0   501     0  0.000000000E+00  0.000000000E+00  8.905890047E+02  8.905890047E+02  0.000000000E+00  0.00000E+00  9.000E+00
      -2    -1     0     0     0   502  0.000000000E+00  0.000000000E+00 -2.554164766E+02  2.554164766E+02  0.000000000E+00  0.00000E+00  9.000E+00
      23     2     1     2     0     0  2.467250948E+02 -3.604801433E+01 -1.308452637E+02  2.959872736E+02  9.118800000E+01  0.00000E+00  9.000E+00
     -13     1     3     3     0     0  2.478867843E+02 -4.728703492E+01 -1.316999584E+02  2.846556020E+02  1.057000000E-01  0.00000E+00  9.000E+00
      13     1     3     3     0     0 -1.161689513E+00  1.123902060E+01  8.546946750E-01  1.133167163E+01  1.057000000E-01  0.00000E+00  9.000E+00
       1     1     1     2   501     0 -1.859658946E+02 -3.898801195E+01  6.505736472E+02  6.777533167E+02  3.300000000E-01  0.00000E+00  9.000E+00
      -1     1     1     2     0   511 -1.108959654E+01  2.908625958E+01 -7.418429287E+00  3.200205683E+01  3.300000000E-01  0.00000E+00  9.000E+00
      21     1     1     2   511   502 -4.966960367E+01  4.594976669E+01  1.228625739E+02  1.402628342E+02  3.303624740E-06  0.00000E+00  9.000E+00
</event>
<event>
      8  10001  1.06539E-02  3.11930E+02 -1.00000E+00  1.06746E-01
       2    -1     0     0   501     0  0.000000000E+00  0.000000000E+00  1.528590865E+03  1.528590865E+03  0.000000000E+00  0.00000E+00  9.000E+00
       3    -1     0     0   502     0  0.000000000E+00  0.000000000E+00 -1.150502005E+02  1.150502005E+02  0.000000000E+00  0.00000E+00  9.000E+00
      23     2     1     2     0     0 -4.440071764E+01  1.188615602E+01 -3.663713894E+01  1.084907172E+02  9.118800000E+01  0.00000E+00  9.000E+00
     -13     1     3     3     0     0 -2.837815369E+00  3.902914939E+01  9.988021643E+00  4.038687221E+01  1.057000000E-01  0.00000E+00  9.000E+00
      13     1     3     3     0     0 -4.156290227E+01 -2.714299337E+01 -4.662516059E+01  6.810384502E+01  1.057000000E-01  0.00000E+00  9.000E+00
       2     1     1     2   501     0  1.694198497E+01  9.070389371E+01  1.093864329E+03  1.097749291E+03  3.300000000E-01  0.00000E+00  9.000E+00
       3     1     1     2   512     0 -7.457179884E+00 -4.144832117E+00  3.294332356E+02  3.295440728E+02  5.000000000E-01  0.00000E+00  9.000E+00
      21     1     1     2   502   512  3.491591256E+01 -9.844521761E+01  2.688023872E+01  1.078569843E+02  7.516805063E-06  0.00000E+00  9.000E+00
</event>
<event>
      8  10001  1.33068E-02  3.51927E+01 -1.00000E+00  1.51850E-01
       1    -1     0     0   501     0  0.000000000E+00  0.000000000E+00  1.071584920E+02  1.071584920E+02  0.000000000E+00  0.00000E+00  9.000E+00
       2    -1     0     0   502     0  0.000000000E+00  0.000000000E+00 -4.530556541E+02  4.530556541E+02  0.000000000E+00  0.00000E+00  9.000E+00
      23     2     1     2     0     0 -8.047976060E+01  6.705512606E+01 -2.978420538E+02  3.286312860E+02  9.118800000E+01  0.00000E+00  9.000E+00
     -13     1     3     3     0     0 -1.989634444E+01 -2.274821567E+01 -5.596045412E+01  6.359975972E+01  1.057000000E-01  0.00000E+00  9.000E+00
      13     1     3     3     0     0 -6.058341615E+01  8.980334173E+01 -2.418815997E+02  2.650315263E+02  1.057000000E-01  0.00000E+00  9.000E+00
       2     1     1     2   511     0  4.781060986E+00 -1.276481283E+01 -2.211293244E+01  2.597863876E+01  3.300000000E-01  0.00000E+00  9.000E+00
       1     1     1     2   502     0  6.815749028E+01 -4.055254714E+01  7.157740579E+01  1.068334521E+02  3.300000000E-01  0.00000E+00  9.000E+00
      21     1     1     2   501   511  7.541209334E+00 -1.373776608E+01 -9.751958168E+01  9.877076929E+01  0.000000000E+00  0.00000E+00  9.000E+00
</event>
<event>
      8  10001  1.21114E-02  1.14130E+02 -1.00000E+00  1.23589E-01
       4    -1     0     0   501     0  0.000000000E+00  0.000000000E+00  1.309560106E+02  1.309560106E+02  0.000000000E+00  0.00000E+00  9.000E+00
      -2    -1     0     0     0   502  0.000000000E+00  0.000000000E+00 -1.805690332E+02  1.805690332E+02  0.000000000E+00  0.00000E+00  9.000E+00
      23     2     1     2     0     0  4.593957669E+01  3.743520988E+01 -8.891178211E+01  1.404720470E+02  9.118800000E+01  0.00000E+00  9.000E+00
     -13     1     3     3     0     0  4.596354418E+01 -3.485262288E+00 -8.823010532E+01  9.954575382E+01  1.057000000E-01  0.00000E+00  9.000E+00
      13     1     3     3     0     0 -2.396748648E-02  4.092047217E+01 -6.816767862E-01  4.092629317E+01  1.057000000E-01  0.00000E+00  9.000E+00
       4     1     1     2   501     0 -5.044963175E+01  1.143024510E+00 -1.169054440E+01  5.182075527E+01  1.500000000E+00  0.00000E+00  9.000E+00
      -2     1     1     2     0   511  4.040543901E+00 -5.622238066E+01 -8.656964025E+00  5.702923818E+01  3.300000000E-01  0.00000E+00  9.000E+00
      21     1     1     2   511   502  4.695111572E-01  1.764414626E+01  5.964626799E+01  6.220300333E+01  0.000000000E+00  0.00000E+00  9.000E+00
</event>
<event>
      8  10001  1.54875E-02  2.35655E+02 -1.00000E+00  1.10954E-01
      -3    -1     0     0     0   501  0.000000000E+00  0.000000000E+00  2.062581759E+02  2.062581759E+02  0.000000000E+00  0.00000E+00  9.000E+00
      -4    -1     0     0     0   502  0.000000000E+00  0.000000000E+00 -1.487192364E+02  1.487192364E+02  0.000000000E+00  0.00000E+00  9.000E+00
      23     2     1     2     0     0 -1.011448222E+00 -7.809283109E-01 -7.122358029E+01  1.157137961E+02  9.118800000E+01  0.00000E+00  9.000E+00
     -13     1     3     3     0     0  2.593566716E+01  3.650878854E+01 -2.968283813E+01  5.372739081E+01  1.057000000E-01  0.00000E+00  9.000E+00
      13     1     3     3     0     0 -2.694711538E+01 -3.728971685E+01 -4.154074215E+01  6.198640529E+01  1.057000000E-01  0.00000E+00  9.000E+00
      -4     1     1     2     0   501 -2.543832291E+01  1.568585208E+01 -4.225070893E+01  5.177380257E+01  1.500000000E+00  0.00000E+00  9.000E+00
      -3     1     1     2     0   512  1.801549667E-01 -1.280440915E+01 -1.565357814E+00  1.291068141E+01  5.000000000E-01  0.00000E+00  9.000E+00
      21     1     1     2   512   502  2.626961616E+01 -2.100514618E+00  1.725785865E+02  1.745791323E+02  4.264961200E-06  0.00000E+00  9.000E+00
</event>
<event>
      8  10001  1.68928E-02  5.24301E+02 -1.00000E+00  9.97540E-02
       1    -1     0     0   501     0  0.000000000E+00  0.000000000E+00  3.105958994E+03  3.105958994E+03  0.000000000E+00  0.00000E+00  9.000E+00
       2    -1     0     0   502     0  0.000000000E+00  0.000000000E+00 -4.992693031E+01  4.992693031E+01  0.000000000E+00  0.00000E+00  9.000E+00
      23     2     1     2     0     0  9.992419398E+01  4.310796660E+01  9.724824193E+02  9.827921696E+02  9.118800000E+01  0.00000E+00  9.000E+00
     -13     1     3     3     0     0  6.676152356E+01  4.536637812E+01  8.929824029E+02  8.966229935E+02  1.057000000E-01  0.00000E+00  9.000E+00
      13     1     3     3     0     0  3.316267041E+01 -2.258411514E+00  7.950001639E+01  8.616917610E+01  1.057000000E-01  0.00000E+00  9.000E+00
       2     1     1     2   501     0 -3.945897112E+01 -1.417008192E+01  9.076314174E+01  9.997928997E+01  3.300000000E-01  0.00000E+00  9.000E+00
       1     1     1     2   511     0  3.333251245E+01 -3.362723652E+01 -2.472647893E+01  5.341680525E+01  3.300000000E-01  0.00000E+00  9.000E+00
      21     1     1     2   502   511 -9.379773530E+01  4.689351839E+00  2.017512981E+03  2.019697659E+03  2.157918644E-05  0.00000E+00  9.000E+00
</event>
<event>
      8  10001  1.06045E-02  3.18595E+02 -1.00000E+00  1.06442E-01
       3    -1     0     0   501     0  0.000000000E+00  0.000000000E+00  6.509643377E+01  6.509643377E+01  0.000000000E+00  0.00000E+00  9.000E+00
       2    -1     0     0   502     0  0.000000000E+00  0.000000000E+00 -1.954242814E+03  1.954242814E+03  0.000000000E+00  0.00000E+00  9.000E+00
      23     2     1     2     0     0  3.822015302E+00 -5.558501259E+01 -7.032400012E+01  1.279258291E+02  9.118800000E+01  0.00000E+00  9.000E+00
     -13     1     3     3     0     0  9.347411931E+00 -5.453574154E+01  2.015636004E+00  5.536781715E+01  1.057000000E-01  0.00000E+00  9.000E+00
      13     1     3     3     0     0 -5.525396630E+00 -1.049271050E+00 -7.233963612E+01  7.255801199E+01  1.057000000E-01  0.00000E+00  9.000E+00
       4     1     1     2   512     0  5.535415741E+01 -7.489660323E+01 -3.295856617E+01  9.880334509E+01  1.500000000E+00  0.00000E+00  9.000E+00
       1     1     1     2   502     0 -7.740118781E+00  8.782358587E+01 -9.526778201E+02  9.567486762E+02  3.300000000E-01  0.00000E+00  9.000E+00
      21     1     1     2   501   512 -5.143605393E+01  4.265802994E+01 -8.331859935E+02  8.358613970E+02  0.000000000E+00  0.00000E+00  9.000E+00
</event>
<event>
      8  10001  1.40979E-02  3.13742E+01 -1.00000E+00  1.55340E-01
       1    -1     0     0   501     0  0.000000000E+00  0.000000000E+00  6.156772646E+02  6.156772646E+02  0.000000000E+00  0.00000E+00  9.000E+00
      21    -1     0     0   502   511  0.000000000E+00  0.000000000E+00 -6.304187182E+01  6.304187182E+01  0.000000000E+00  0.00000E+00  9.000E+00
      23     2     1     2     0     0 -2.142273167E+01 -1.565873191E+00  2.077602509E+02  2.279055914E+02  9.118800000E+01  0.00000E+00  9.000E+00
     -13     1     3     3     0     0  2.940827767E+01 -2.367300057E+01  7.283023632E+01  8.203360437E+01  1.057000000E-01  0.00000E+00  9.000E+00
      13     1     3     3     0     0 -5.083100934E+01  2.210712738E+01  1.349300146E+02  1.458719870E+02  1.057000000E-01  0.00000E+00  9.000E+00
       1     1     1     2   501     0  3.056705585E+01  3.502349356E+01  3.718000850E+02  3.746950789E+02  3.300000000E-01  0.00000E+00  9.000E+00
       1     1     1     2   502     0  2.211632355E+01 -3.079328708E+01 -2.337995150E+01  4.454311764E+01  3.300000000E-01  0.00000E+00  9.000E+00
      -1     1     1     2     0   511 -3.126064773E+01 -2.664333286E+00 -3.544991644E+00  3.157534852E+01  3.300000000E-01  0.00000E+00  9.000E+00
</event>
<event>
      8  10001  1.05560E-02  2.26751E+02 -1.00000E+00  1.11559E-01
       1    -1     0     0   501     0  0.000000000E+00  0.000000000E+00  1.201931876E+02  1.201931876E+02  0.000000000E+00  0.00000E+00  9.000E+00
       2    -1     0     0   502     0  0.000000000E+00  0.000000000E+00 -1.220355035E+03  1.220355035E+03  0.000000000E+00  0.00000E+00  9.000E+00
      23     2     1     2     0     0  2.021615736E+01 -3.130145319E+01 -3.788212046E+01  1.055404206E+02  9.118800000E+01  0.00000E+00  9.000E+00
     -13     1     3     3     0     0  1.213799964E+01 -5.104198235E+01 -5.658995650E+01  7.716896621E+01  1.057000000E-01  0.00000E+00  9.000E+00
      13     1     3     3     0     0  8.078157715E+00  1.974052916E+01  1.870783603E+01  2.837145441E+01  1.057000000E-01  0.00000E+00  9.000E+00
       2     1     1     2   511     0 -4.802386532E+01  2.706080191E+02 -2.242313715E+02  3.547038321E+02  3.300000000E-01  0.00000E+00  9.000E+00
       1     1     1     2   502     0  6.408327844E+00 -1.945042802E+02 -4.666848418E+02  5.056360669E+02  3.300000000E-01  0.00000E+00  9.000E+00
      21     1     1     2   501   511  2.139938011E+01 -4.480228572E+01 -3.713635136E+02  3.746679030E+02  5.394796609E-06  0.00000E+00  9.000E+00
</event>
<event>
      8  10001  1.47404E-02  1.04407E+02 -1.00000E+00  1.25346E-01
      -1    -1     0     0     0   501  0.000000000E+00  0.000000000E+00  1.029153766E+01  1.029153766E+01  0.000000000E+00  0.00000E+00  9.000E+00
      -2    -1     0     0     0   502  0.000000000E+00  0.000000000E+00 -1.216457145E+03  1.216457145E+03  0.000000000E+00  0.00000E+00  9.000E+00
      23     2     1     2     0     0 -1.868221630E+01  3.948724009E+01 -5.130528394E+02  5.229213465E+02  9.118800000E+01  0.00000E+00  9.000E+00
     -13     1     3     3     0     0 -3.013473870E+01  1.586536074E+01 -4.775710877E+02  4.787838418E+02  1.057000000E-01  0.00000E+00  9.000E+00
      13     1     3     3     0     0  1.145252240E+01  2.362187935E+01 -3.548175161E+01  4.413750472E+01  1.057000000E-01  0.00000E+00  9.000E+00
      -1     1     1     2     0   511  3.228626782E-01  3.008410301E-01  5.554254108E-04  5.510407815E-01  3.300000000E-01  0.00000E+00  9.000E+00
      -2     1     1     2     0   502 -3.198383293E+00 -5.087661904E+01 -1.299501251E+02  1.395915611E+02  3.300000000E-01  0.00000E+00  9.000E+00
      21     1     1     2   511   501  2.155773692E+01  1.108853792E+01 -5.631631984E+02  5.636847343E+02  2.288818359E-05  0.00000E+00  9.000E+00
</event>
<event>
      8  10001  1.27796E-02  3.17402E+02 -1.00000E+00  1.06496E-01
       2    -1     0     0   501     0  0.000000000E+00  0.000000000E+00  1.177068188E+03  1.177068188E+03  0.000000000E+00  0.00000E+00  9.000E+00
      -4    -1     0     0     0   502  0.000000000E+00  0.000000000E+00 -9.790258779E+01  9.790258779E+01  0.000000000E+00  0.00000E+00  9.000E+00
      23     2     1     2     0     0 -1.515467681E+00 -1.746417161E+01 -4.327088256E+01  1.024446902E+02  9.118800000E+01  0.00000E+00  9.000E+00
     -13     1     3     3     0     0  7.188716631E+00  1.685805594E+01 -6.039353835E+01  6.311309169E+01  1.057000000E-01  0.00000E+00  9.000E+00
      13     1     3     3     0     0 -8.704184311E+00 -3.432222755E+01  1.712265579E+01  3.933159852E+01  1.057000000E-01  0.00000E+00  9.000E+00
       1     1     1     2   501     0  1.870347985E+01 -6.181905718E+00  5.995017921E+02  5.998254277E+02  3.300000000E-01  0.00000E+00  9.000E+00
      -3     1     1     2     0   511 -1.351112861E+01 -2.507257855E+01 -1.524448529E+01  3.230834448E+01  5.000000000E-01  0.00000E+00  9.000E+00
      21     1     1     2   511   502 -3.676883563E+00  4.871865589E+01  5.381791756E+02  5.403923130E+02  1.525878906E-05  0.00000E+00  9.000E+00
</event>
<event>
      8  10001  1.09131E-02  1.54293E+02 -1.00000E+00  1.17994E-01
      -1    -1     0     0     0   501  0.000000000E+00  0.000000000E+00  3.675071027E+01  3.675071027E+01  0.000000000E+00  0.00000E+00  9.000E+00
       1    -1     0     0   502     0  0.000000000E+00  0.000000000E+00 -7.188206696E+02  7.188206696E+02  0.000000000E+00  0.00000E+00  9.000E+00
      23     2     1     2     0     0 -7.276861207E+00 -3.036423645E+01 -2.342280029E+02  2.532843230E+02  9.118800000E+01  0.00000E+00  9.000E+00
     -13     1     3     3     0     0  1.292436047E+01 -5.647920194E+01 -1.861715645E+02  1.949789782E+02  1.057000000E-01  0.00000E+00  9.000E+00
      13     1     3     3     0     0 -2.020122168E+01  2.611496549E+01 -4.805643843E+01  5.830534475E+01  1.057000000E-01  0.00000E+00  9.000E+00
      -2     1     1     2     0   512 -4.950860038E+00 -4.293120628E+01 -1.692230857E+01  4.641199107E+01  3.300000000E-01  0.00000E+00  9.000E+00
       2     1     1     2   502     0 -3.077845939E+00  6.710466108E+01 -7.955646318E+01  1.041241970E+02  3.300000000E-01  0.00000E+00  9.000E+00
      21     1     1     2   512   501  1.530556718E+01  6.190781646E+00 -3.513631846E+02  3.517508688E+02  8.529922400E-06  0.00000E+00  9.000E+00
</event>
<event>
      8  10001  1.53153E-02  2.74441E+01 -1.00000E+00  1.59622E-01
       2    -1     0     0   501     0  0.000000000E+00  0.000000000E+00  2.905204685E+02  2.905204685E+02  0.000000000E+00  0.00000E+00  9.000E+00
       2    -1     0     0   502     0  0.000000000E+00  0.000000000E+00 -2.170969744E+02  2.170969744E+02  0.000000000E+00  0.00000E+00  9.000E+00
      23     2     1     2     0     0  5.133283378E+01 -1.391202175E+01 -1.885872158E+02  2.161226353E+02  9.118800000E+01  0.00000E+00  9.000E+00
     -13     1     3     3     0     0  3.660870381E+01 -2.939661906E+01 -1.890065195E+02  1.947506970E+02  1.057000000E-01  0.00000E+00  9.000E+00
      13     1     3     3     0     0  1.472412997E+01  1.548459730E+01  4.193036843E-01  2.137193826E+01  1.057000000E-01  0.00000E+00  9.000E+00
       2     1     1     2   511     0  1.394124542E+00 -1.185105253E-01  9.049750089E+00  9.163214756E+00  3.300000000E-01  0.00000E+00  9.000E+00
       2     1     1     2   502     0 -6.288012094E+01  5.587354084E+00  2.598702993E+02  2.674281389E+02  3.300000000E-01  0.00000E+00  9.000E+00
      21     1     1     2   501   511  1.015316261E+01  8.443178196E+00 -6.909339374E+00  1.490345395E+01  1.233110479E-06  0.00000E+00  9.000E+00
</event>
<event>
      8  10001  1.37749E-02  9.36862E+01 -1.00000E+00  1.27555E-01
      -4    -1     0     0     0   501  0.000000000E+00  0.000000000E+00  1.576073359E+02  1.576073359E+02  0.000000000E+00  0.00000E+00  9.000E+00
       2    -1     0     0   502     0  0.000000000E+00  0.000000000E+00 -7.414229020E+02  7.414229020E+02  0.000000000E+00  0.00000E+00  9.000E+00
      23     2     1     2     0     0  1.030588138E+02 -8.765973345E+01  9.649338802E+01  1.895562535E+02  9.118800000E+01  0.00000E+00  9.000E+00
     -13     1     3     3     0     0  1.122356735E+02 -9.803633897E+01  8.502888446E+01  1.715747433E+02  1.057000000E-01  0.00000E+00  9.000E+00
      13     1     3     3     0     0 -9.176859699E+00  1.037660553E+01  1.146450356E+01  1.798151024E+01  1.057000000E-01  0.00000E+00  9.000E+00
      -3     1     1     2     0   511 -1.821649254E+00  1.238059930E-01 -5.423402589E+01  5.426705536E+01  5.000000000E-01  0.00000E+00  9.000E+00
       1     1     1     2   502     0 -1.207887084E+01  2.432328141E+01 -9.125321745E+00  2.865137931E+01  3.300000000E-01  0.00000E+00  9.000E+00
      21     1     1     2   511   501 -8.915829367E+01  6.321264604E+01 -6.169496065E+02  6.265555498E+02  7.629394531E-06  0.00000E+00  9.000E+00
</event>
<event>
      8  10001  1.28604E-02  5.41902E+01 -1.00000E+00  1.40059E-01
       2    -1     0     0   501     0  0.000000000E+00  0.000000000E+00  1.199011322E+01  1.199011322E+01  0.000000000E+00  0.00000E+00  9.000E+00
      -4    -1     0     0     0   502  0.000000000E+00  0.000000000E+00 -1.496339936E+03  1.496339936E+03  0.000000000E+00  0.00000E+00  9.000E+00
      23     2     1     2     0     0  4.540763867E+01 -7.385169671E+01 -9.638551896E+02  9.720329236E+02  9.118800000E+01  0.00000E+00  9.000E+00
     -13     1     3     3     0     0  1.273109959E+01 -3.835748871E+01 -8.049814858E+02  8.059953979E+02  1.057000000E-01  0.00000E+00  9.000E+00
      13     1     3     3     0     0  3.267653909E+01 -3.549420799E+01 -1.588737038E+02  1.660375257E+02  1.057000000E-01  0.00000E+00  9.000E+00
       2     1     1     2   501     0 -6.459516014E+01  6.217313746E+01 -3.767997412E+02  3.873192321E+02  3.300000000E-01  0.00000E+00  9.000E+00
      -4     1     1     2     0   511  2.946003544E+00  4.691155959E+00 -1.158614084E+02  1.160034562E+02  1.500000000E+00  0.00000E+00  9.000E+00
      21     1     1     2   511   502  1.624151792E+01  6.987403291E+00 -2.783348391E+01  3.297443761E+01  1.261592536E-06  0.00000E+00  9.000E+00
</event>
<event>
      8  10001  1.57815E-02  2.51649E+02 -1.00000E+00  1.09939E-01
       2    -1     0     0   501     0  0.000000000E+00  0.000000000E+00  1.119276123E+03  1.119276123E+03  0.000000000E+00  0.00000E+00  9.000E+00
       2    -1     0     0   502     0  0.000000000E+00  0.000000000E+00 -2.019733602E+02  2.019733602E+02  0.000000000E+00  0.00000E+00  9.000E+00
      23     2     1     2     0     0  2.152658973E+01 -1.728526581E+02  8.819065677E+02  9.035573479E+02  9.118800000E+01  0.00000E+00  9.000E+00
     -13     1     3     3     0     0  3.284953528E+01 -1.246175010E+02  7.760672383E+02  7.866949746E+02  1.057000000E-01  0.00000E+00  9.000E+00
      13     1     3     3     0     0 -1.132294555E+01 -4.823515713E+01  1.058393295E+02  1.168623734E+02  1.057000000E-01  0.00000E+00  9.000E+00
       2     1     1     2   512     0 -1.016761420E+02  2.731515207E+01 -1.431748150E+01  1.062509038E+02  3.300000000E-01  0.00000E+00  9.000E+00
       2     1     1     2   502     0 -4.169565574E+00 -1.657915235E+00 -9.095675619E+01  9.106796558E+01  3.300000000E-01  0.00000E+00  9.000E+00
      21     1     1     2   501   512  8.431911786E+01  1.471954213E+02  1.406704328E+02  2.203732659E+02  3.303624740E-06  0.00000E+00  9.000E+00
</event>
<event>
      8  10001  1.05613E-02  2.26626E+02 -1.00000E+00  1.11568E-01
       2    -1     0     0   501     0  0.000000000E+00  0.000000000E+00  4.348664637E+02  4.348664637E+02  0.000000000E+00  0.00000E+00  9.000E+00
       1    -1     0     0   502     0  0.000000000E+00  0.000000000E+00 -1.203302158E+03  1.203302158E+03  0.000000000E+00  0.00000E+00  9.000E+00
      23     2     1     2     0     0 -2.910460717E+02 -9.829126628E+01 -8.520412450E+02  9.103068293E+02  9.118800000E+01  0.00000E+00  9.000E+00
     -13     1     3     3     0     0 -2.094904266E+02 -8.870899242E+01 -5.082160063E+02  5.568114981E+02  1.057000000E-01  0.00000E+00  9.000E+00
      13     1     3     3     0     0 -8.155564507E+01 -9.582273861E+00 -3.438252387E+02  3.534953312E+02  1.057000000E-01  0.00000E+00  9.000E+00
       1     1     1     2   501     0  2.390084843E+02  3.036969272E+02 -6.815315470E+01  3.924306825E+02  3.300000000E-01  0.00000E+00  9.000E+00
       2     1     1     2   511     0  4.209684146E+01 -1.816655245E+02  5.118876682E+00  1.865497752E+02  3.300000000E-01  0.00000E+00  9.000E+00
      21     1     1     2   502   511  9.940745889E+00 -2.374013649E+01  1.466398286E+02  1.488813348E+02  1.907348633E-06  0.00000E+00  9.000E+00
</event>
<event>
      8  10001  1.05777E-02  9.10541E+02 -1.00000E+00  9.32749E-02
       1    -1     0     0   501     0  0.000000000E+00  0.000000000E+00  3.398383691E+02  3.398383691E+02  0.000000000E+00  0.00000E+00  9.000E+00
      -1    -1     0     0     0   502  0.000000000E+00  0.000000000E+00 -1.728573952E+03  1.728573952E+03  0.000000000E+00  0.00000E+00  9.000E+00
      23     2     1     2     0     0 -2.885977974E+02  2.253965594E+02  8.972154831E+00  3.774758914E+02  9.118800000E+01  0.00000E+00  9.000E+00
     -13     1     3     3     0     0 -1.602196848E+02  1.417594095E+02 -3.787040744E+01  2.172562002E+02  1.057000000E-01  0.00000E+00  9.000E+00
      13     1     3     3     0     0 -1.283781126E+02  8.363714999E+01  4.684256227E+01  1.602196912E+02  1.057000000E-01  0.00000E+00  9.000E+00
       2     1     1     2   512     0 -7.021403709E+00  1.411348844E+01  5.915379440E+01  6.121904081E+01  3.300000000E-01  0.00000E+00  9.000E+00
      -2     1     1     2     0   502  2.409530998E+02 -3.386690986E+02 -4.351708304E+02  6.017714809E+02  3.300000000E-01  0.00000E+00  9.000E+00
      21     1     1     2   501   512  5.466610135E+01  9.915905069E+01 -1.021690701E+03  1.027945908E+03  4.703074648E-05  0.00000E+00  9.000E+00
</event>
<event>
      8  10001  1.09297E-02  1.71836E+02 -1.00000E+00  1.16119E-01
       4    -1     0     0   501     0  0.000000000E+00  0.000000000E+00  1.096821659E+03  1.096821659E+03  0.000000000E+00  0.00000E+00  9.000E+00
       1    -1     0     0   502     0  0.000000000E+00  0.000000000E+00 -4.379476421E+01  4.379476421E+01  0.000000000E+00  0.00000E+00  9.000E+00
      23     2     1     2     0     0 -3.794040620E+01  1.168127798E+02  2.375592905E+02  2.825497617E+02  9.118800000E+01  0.00000E+00  9.000E+00
     -13     1     3     3     0     0 -2.435254739E+01  6.990683132E+01  5.147640524E+01  9.016564256E+01  1.057000000E-01  0.00000E+00  9.000E+00
      13     1     3     3     0     0 -1.358785881E+01  4.690594853E+01  1.860828853E+02  1.923841191E+02  1.057000000E-01  0.00000E+00  9.000E+00
       3     1     1     2   501     0  1.229702779E+00 -1.498864359E+02  3.917162379E+02  4.194154466E+02  5.000000000E-01  0.00000E+00  9.000E+00
       2     1     1     2   511     0 -5.279206805E+00  1.201112160E+01  8.532275053E-01  1.315195665E+01  3.300000000E-01  0.00000E+00  9.000E+00
      21     1     1     2   502   511  4.198991023E+01  2.106253448E+01  4.228981393E+02  4.254992587E+02  5.394796609E-06  0.00000E+00  9.000E+00
</event>
<event>
      8  10001  1.07572E-02  7.53648E+01 -1.00000E+00  1.32242E-01
       2    -1     0     0   501     0  0.000000000E+00  0.000000000E+00  3.664270540E+02  3.664270540E+02  0.000000000E+00  0.00000E+00  9.000E+00
       1    -1     0     0   502     0  0.000000000E+00  0.000000000E+00 -1.356347423E+03  1.356347423E+03  0.000000000E+00  0.00000E+00  9.000E+00
      23     2     1     2     0     0 -7.619854667E+01  2.878936921E+02  2.547947341E+02  4.023985640E+02  9.118800000E+01  0.00000E+00  9.000E+00
     -13     1     3     3     0     0 -6.446452868E+01  1.445785166E+02  1.820562455E+02  2.412532085E+02  1.057000000E-01  0.00000E+00  9.000E+00
      13     1     3     3     0     0 -1.173401799E+01  1.433151755E+02  7.273848861E+01  1.611453556E+02  1.057000000E-01  0.00000E+00  9.000E+00
       1     1     1     2   512     0  6.759136273E+01  2.981554556E+00 -3.828712496E+01  7.773991781E+01  3.300000000E-01  0.00000E+00  9.000E+00
       2     1     1     2   502     0  1.017864043E+01 -2.850262337E+02 -1.111280591E+03  1.147296047E+03  3.300000000E-01  0.00000E+00  9.000E+00
      21     1     1     2   501   512 -1.571456490E+00 -5.849012936E+00 -9.514738742E+01  9.533994840E+01  0.000000000E+00  0.00000E+00  9.000E+00
</event>
<event>
      8  10001  1.10689E-02  3.84191E+02 -1.00000E+00  1.03824E-01
       2    -1     0     0   501     0  0.000000000E+00  0.000000000E+00  2.716803421E+02  2.716803421E+02  0.000000000E+00  0.00000E+00  9.000E+00
       1    -1     0     0   502     0  0.000000000E+00  0.000000000E+00 -3.917249566E+02  3.917249566E+02  0.000000000E+00  0.00000E+00  9.000E+00
      23     2     1     2     0     0 -1.972373720E+02 -4.770248475E+01 -3.018428954E+02  3.749699892E+02  9.118800000E+01  0.00000E+00  9.000E+00
     -13     1     3     3     0     0 -1.982908851E+02 -4.984175522E+01 -2.495040697E+02  3.225767624E+02  1.057000000E-01  0.00000E+00  9.000E+00
      13     1     3     3     0     0  1.053513088E+00  2.139270471E+00 -5.233882567E+01  5.239322678E+01  1.057000000E-01  0.00000E+00  9.000E+00
       1     1     1     2   501     0  6.896039901E+01  1.040760189E+01  2.278300072E+01  7.336912724E+01  3.300000000E-01  0.00000E+00  9.000E+00
       2     1     1     2   511     0  2.049196889E+00 -4.279884732E+00 -2.918029899E+00  5.580360177E+00  3.300000000E-01  0.00000E+00  9.000E+00
      21     1     1     2   502   511  1.262277761E+02  4.157476759E+01  1.619333100E+02  2.094858221E+02  4.672030912E-06  0.00000E+00  9.000E+00
</event>
<event>
      8  10001  1.70482E-02  9.11747E+01 -1.00000E+00  1.28122E-01
       2    -1     0     0   501     0  0.000000000E+00  0.000000000E+00  2.512012615E+02  2.512012615E+02  0.000000000E+00  0.00000E+00  9.000E+00
      -2    -1     0     0     0   502  0.000000000E+00  0.000000000E+00 -6.288949496E+01  6.288949496E+01  0.000000000E+00  0.00000E+00  9.000E+00
      23     2     1     2     0     0  1.409227578E+01 -7.919529582E+00 -1.707907188E+01  9.417142468E+01  9.118800000E+01  0.00000E+00  9.000E+00
     -13     1     3     3     0     0 -1.593813300E+01 -1.445654221E+00 -4.799183320E+01  5.058993207E+01  1.057000000E-01  0.00000E+00  9.000E+00
      13     1     3     3     0     0  3.003040878E+01 -6.473875361E+00  3.091276132E+01  4.358149261E+01  1.057000000E-01  0.00000E+00  9.000E+00
       2     1     1     2   501     0  2.072273036E+00  2.759576629E+01  4.902166577E+01  5.629434472E+01  3.300000000E-01  0.00000E+00  9.000E+00
      -2     1     1     2     0   512 -1.412388863E+01 -3.194352189E+00  1.352056831E+01  1.981420661E+01  3.300000000E-01  0.00000E+00  9.000E+00
      21     1     1     2   512   502 -2.040660180E+00 -1.648188452E+01  1.428486044E+02  1.438107805E+02  0.000000000E+00  0.00000E+00  9.000E+00
</event>
<event>
      8  10001  1.06207E-02  9.10520E+02 -1.00000E+00  9.32751E-02
       2    -1     0     0   501     0  0.000000000E+00  0.000000000E+00  1.673302740E+03  1.673302740E+03  0.000000000E+00  0.00000E+00  9.000E+00
       2    -1     0     0   502     0  0.000000000E+00  0.000000000E+00 -7.131730893E+02  7.131730893E+02  0.000000000E+00  0.00000E+00  9.000E+00
      23     2     1     2     0     0  4.744256247E+02 -4.994276615E+02 -2.336809029E+02  7.330959543E+02  9.118800000E+01  0.00000E+00  9.000E+00
     -13     1     3     3     0     0  1.434350060E+02 -1.096873535E+02 -9.119430226E+01  2.022902083E+02  1.057000000E-01  0.00000E+00  9.000E+00
      13     1     3     3     0     0  3.309906188E+02 -3.897403081E+02 -1.424866007E+02  5.308057460E+02  1.057000000E-01  0.00000E+00  9.000E+00
       2     1     1     2   511     0 -3.123392159E+00  3.890757601E+01  2.145380938E+02  2.180602156E+02  3.300000000E-01  0.00000E+00  9.000E+00
       2     1     1     2   502     0  1.065809706E+02 -6.653291417E+01  5.055057767E+02  5.208861019E+02  3.300000000E-01  0.00000E+00  9.000E+00
      21     1     1     2   501   511 -5.778832031E+02  5.270529997E+02  4.737666834E+02  9.144335576E+02  1.321449896E-05  0.00000E+00  9.000E+00
</event>
<event>
      8  10001  1.36403E-02  4.98368E+01 -1.00000E+00  1.42198E-01
       2    -1     0     0   501     0  0.000000000E+00  0.000000000E+00  4.374225563E+01  4.374225563E+01  0.000000000E+00  0.00000E+00  9.000E+00
       3    -1     0     0   502     0  0.000000000E+00  0.000000000E+00 -8.386328470E+02  8.386328470E+02  0.000000000E+00  0.00000E+00  9.000E+00
      23     2     1     2     0     0  8.449863260E+01 -1.880177641E+00 -4.955772994E+02  5.109360675E+02  9.118800000E+01  0.00000E+00  9.000E+00
     -13     1     3     3     0     0  5.015524307E+01 -4.623782027E+01 -2.676006060E+02  2.761586138E+02  1.057000000E-01  0.00000E+00  9.000E+00
      13     1     3     3     0     0  3.434338953E+01  4.435764263E+01 -2.279766934E+02  2.347774537E+02  1.057000000E-01  0.00000E+00  9.000E+00
       1     1     1     2   511     0 -2.536621845E+01  2.439321589E+01 -1.330710132E+02  1.376462040E+02  3.300000000E-01  0.00000E+00  9.000E+00
       4     1     1     2   502     0 -6.226888415E+01 -8.999829069E+00  3.929697396E+00  6.305635081E+01  1.500000000E+00  0.00000E+00  9.000E+00
      21     1     1     2   501   511  3.136469998E+00 -1.351320918E+01 -1.701719761E+02  1.707364803E+02  4.672030912E-06  0.00000E+00  9.000E+00
</event>
<event>
      8  10001  1.08963E-02  1.69189E+02 -1.00000E+00  1.16385E-01
       2    -1     0     0   501     0  0.000000000E+00  0.000000000E+00  2.256645717E+02  2.256645717E+02  0.000000000E+00  0.00000E+00  9.000E+00
      -2    -1     0     0     0   502  0.000000000E+00  0.000000000E+00 -2.927377368E+02  2.927377368E+02  0.000000000E+00  0.00000E+00  9.000E+00
      23     2     1     2     0     0  1.731478090E+02  3.156198185E+01  6.634101276E+01  2.090279976E+02  9.118800000E+01  0.00000E+00  9.000E+00
     -13     1     3     3     0     0 -3.056164235E+00 -6.360500529E+00 -1.085988998E+01  1.295162112E+01  1.057000000E-01  0.00000E+00  9.000E+00
      13     1     3     3     0     0  1.762039732E+02  3.792248237E+01  7.720090274E+01  1.960763764E+02  1.057000000E-01  0.00000E+00  9.000E+00
       1     1     1     2   511     0  1.058934143E+01  1.681294678E+01  3.869327959E+01  4.349813924E+01  3.300000000E-01  0.00000E+00  9.000E+00
      -1     1     1     2     0   502 -1.113475482E+02 -1.747568446E+00 -1.261544019E+02  1.682746936E+02  3.300000000E-01  0.00000E+00  9.000E+00
      21     1     1     2   501   511 -7.238960221E+01 -4.662736018E+01 -4.595305553E+01  9.760147816E+01  2.336015456E-06  0.00000E+00  9.000E+00
</event>
<event>
      8  10001  1.71000E-02  3.25946E+01 -1.00000E+00  1.54163E-01
       3    -1     0     0   501     0  0.000000000E+00  0.000000000E+00  2.768574620E+01  2.768574620E+01  0.000000000E+00  0.00000E+00  9.000E+00
       2    -1     0     0   502     0  0.000000000E+00  0.000000000E+00 -7.746846082E+02  7.746846082E+02  0.000000000E+00  0.00000E+00  9.000E+00
      23     2     1     2     0     0 -9.024493477E+01 -3.226708526E+01 -6.310429460E+02  6.447602376E+02  9.118800000E+01  0.00000E+00  9.000E+00
     -13     1     3     3     0     0 -5.930281947E+01  1.079660806E+01 -4.964818550E+02  5.001276183E+02  1.057000000E-01  0.00000E+00  9.000E+00
      13     1     3     3     0     0 -3.094211529E+01 -4.306369332E+01 -1.345610910E+02  1.446326193E+02  1.057000000E-01  0.00000E+00  9.000E+00
       3     1     1     2   501     0  7.652739093E+01  3.077473832E+01 -7.970029987E+01  1.146992323E+02  5.000000000E-01  0.00000E+00  9.000E+00
       2     1     1     2   511     0  1.868837933E+00 -4.504350453E+00 -2.508763059E+01  2.555933952E+01  3.300000000E-01  0.00000E+00  9.000E+00
      21     1     1     2   502   511  1.184870591E+01  5.996697392E+00 -1.116798558E+01  1.735154498E+01  8.596304120E-07  0.00000E+00  9.000E+00
</event>
<event>
      8  10001  3.89282E-02  2.54264E+01 -1.00000E+00  1.62175E-01
       2    -1     0     0   501     0  0.000000000E+00  0.000000000E+00  1.217424761E+03  1.217424761E+03  0.000000000E+00  0.00000E+00  9.000E+00
       4    -1     0     0   502     0  0.000000000E+00  0.000000000E+00 -6.426996774E+00  6.426996774E+00  0.000000000E+00  0.00000E+00  9.000E+00
      23     2     1     2     0     0 -9.187951756E+00 -1.644421673E+01  1.057759875E+03  1.061850288E+03  9.118800000E+01  0.00000E+00  9.000E+00
     -13     1     3     3     0     0 -7.051258218E+00  1.999209500E+01  6.398659426E+01  6.740696939E+01  1.057000000E-01  0.00000E+00  9.000E+00
      13     1     3     3     0     0 -2.136693537E+00 -3.643631173E+01  9.937732806E+02  9.944433190E+02  1.057000000E-01  0.00000E+00  9.000E+00
       2     1     1     2   501     0 -9.301887560E+00  6.323166214E+00  7.621544701E+00  1.359059921E+01  3.300000000E-01  0.00000E+00  9.000E+00
       4     1     1     2   512     0  5.281322304E-01  4.342731590E+00  6.260350706E+00  7.783330410E+00  1.500000000E+00  0.00000E+00  9.000E+00
      21     1     1     2   502   512  1.796170708E+01  5.778318922E+00  1.393559935E+02  1.406275394E+02  3.303624740E-06  0.00000E+00  9.000E+00
</event>
<event>
      8  10001  1.10072E-02  1.91091E+02 -1.00000E+00  1.14328E-01
       4    -1     0     0   501     0  0.000000000E+00  0.000000000E+00  1.305050209E+03  1.305050209E+03  0.000000000E+00  0.00000E+00  9.000E+00
       3    -1     0     0   502     0  0.000000000E+00  0.000000000E+00 -3.549935619E+01  3.549935619E+01  0.000000000E+00  0.00000E+00  9.000E+00
      23     2     1     2     0     0 -8.169675908E+01  2.966671876E+01  2.144219529E+02  2.486895653E+02  9.118800000E+01  0.00000E+00  9.000E+00
     -13     1     3     3     0     0 -3.585277458E+01  6.071347026E+01  1.152160225E+02  1.350788286E+02  1.057000000E-01  0.00000E+00  9.000E+00
      13     1     3     3     0     0 -4.584398451E+01 -3.104675150E+01  9.920593041E+01  1.136107367E+02  1.057000000E-01  0.00000E+00  9.000E+00
       3     1     1     2   501     0  1.017706113E+02 -1.659213874E+01  4.012722244E+02  4.143093101E+02  5.000000000E-01  0.00000E+00  9.000E+00
       4     1     1     2   511     0 -3.963035671E+01 -5.460930824E+01  9.348432486E+01  1.153009571E+02  1.500000000E+00  0.00000E+00  9.000E+00
      21     1     1     2   502   511  1.955650453E+01  4.153472822E+01  5.603723510E+02  5.622497330E+02  1.321449896E-05  0.00000E+00  9.000E+00
</event>
<event>
      8  10001  1.16749E-02  2.54530E+02 -1.00000E+00  1.09765E-01
       1    -1     0     0   501     0  0.000000000E+00  0.000000000E+00  8.389770331E+01  8.389770331E+01  0.000000000E+00  0.00000E+00  9.000E+00
       2    -1     0     0   502     0  0.000000000E+00  0.000000000E+00 -1.608799183E+03  1.608799183E+03  0.000000000E+00  0.00000E+00  9.000E+00
      23     2     1     2     0     0  7.151263623E+00  1.292048648E+02 -1.298314815E+03  1.307930292E+03  9.118800000E+01  0.00000E+00  9.000E+00
     -13     1     3     3     0     0  1.288408527E+01  7.285025192E+01 -1.075018259E+03  1.077560869E+03  1.057000000E-01  0.00000E+00  9.000E+00
      13     1     3     3     0     0 -5.732821648E+00  5.635461286E+01 -2.232965563E+02  2.303694226E+02  1.057000000E-01  0.00000E+00  9.000E+00
       2     1     1     2   501     0  2.252046230E+00 -6.621879635E+01  2.492523072E+01  7.079107803E+01  3.300000000E-01  0.00000E+00  9.000E+00
       1     1     1     2   512     0 -2.776102161E+01 -2.085074949E+01 -2.640597663E+02  2.663326814E+02  3.300000000E-01  0.00000E+00  9.000E+00
      21     1     1     2   502   512  1.835771176E+01 -4.213531894E+01  1.254787094E+01  4.764283523E+01  2.749577187E-06  0.00000E+00  9.000E+00
</event>
<event>
      8  10001  1.26931E-02  7.27212E+01 -1.00000E+00  1.33044E-01
       2    -1     0     0   501     0  0.000000000E+00  0.000000000E+00  1.601431460E+02  1.601431460E+02  0.000000000E+00  0.00000E+00  9.000E+00
       4    -1     0     0   502     0  0.000000000E+00  0.000000000E+00 -9.912374680E+01  9.912374680E+01  0.000000000E+00  0.00000E+00  9.000E+00
      23     2     1     2     0     0 -8.718860003E+01  1.669967919E+01  6.671662153E+01  1.436909538E+02  9.118800000E+01  0.00000E+00  9.000E+00
     -13     1     3     3     0     0 -8.688594384E+01 -2.112207159E+01  4.561006592E+01  1.003772805E+02  1.057000000E-01  0.00000E+00  9.000E+00
      13     1     3     3     0     0 -3.026561893E-01  3.782175079E+01  2.110655561E+01  4.331367331E+01  1.057000000E-01  0.00000E+00  9.000E+00
       2     1     1     2   501     0  3.481539482E+01  1.333744116E+01  6.825281313E+00  3.790372565E+01  3.300000000E-01  0.00000E+00  9.000E+00
       4     1     1     2   511     0  1.915512137E+00 -1.636791889E+00 -1.916785149E+01  1.939084333E+01  1.500000000E+00  0.00000E+00  9.000E+00
      21     1     1     2   502   511  5.045769307E+01 -2.840032847E+01  6.645347847E+00  5.828137005E+01  8.387116956E-07  0.00000E+00  9.000E+00
</event>
<event>
      8  10001  1.65305E-02  4.48882E+01 -1.00000E+00  1.44964E-01
      -1    -1     0     0     0   501  0.000000000E+00  0.000000000E+00  1.598488527E+01  1.598488527E+01  0.000000000E+00  0.00000E+00  9.000E+00
       2    -1     0     0   502     0  0.000000000E+00  0.000000000E+00 -1.891981021E+03  1.891981021E+03  0.000000000E+00  0.00000E+00  9.000E+00
      23     2     1     2     0     0 -6.547584794E+01 -1.238208955E+01 -2.269329127E+02  2.534841238E+02  9.118800000E+01  0.00000E+00  9.000E+00
     -13     1     3     3     0     0 -5.874551650E+01 -3.819229172E+01 -9.043062222E+01  1.144001550E+02  1.057000000E-01  0.00000E+00  9.000E+00
      13     1     3     3     0     0 -6.730331442E+00  2.581020217E+01 -1.365022905E+02  1.390839688E+02  1.057000000E-01  0.00000E+00  9.000E+00
      -1     1     1     2     0   501  4.851793489E+01  1.481773016E+01 -1.570560942E+03  1.571380074E+03  3.300000000E-01  0.00000E+00  9.000E+00
       2     1     1     2   512     0  3.223324211E+00  1.249167043E+00 -5.826192259E+01  5.836532156E+01  3.300000000E-01  0.00000E+00  9.000E+00
      21     1     1     2   502   512  1.373458884E+01 -3.684807650E+00 -2.024035886E+01  2.473638746E+01  1.831327855E-06  0.00000E+00  9.000E+00
</event>
<event>
      8  10001  1.05355E-02  9.02732E+02 -1.00000E+00  9.33694E-02
      -2    -1     0     0     0   501  0.000000000E+00  0.000000000E+00  3.665253605E+02  3.665253605E+02  0.000000000E+00  0.00000E+00  9.000E+00
      -3    -1     0     0     0   502  0.000000000E+00  0.000000000E+00 -9.902902631E+02  9.902902631E+02  0.000000000E+00  0.00000E+00  9.000E+00
      23     2     1     2     0     0 -1.551213896E+02 -1.252730284E+02 -2.221853806E+02  3.121499189E+02  9.118800000E+01  0.00000E+00  9.000E+00
     -13     1     3     3     0     0 -8.173715854E+01 -1.065978397E+01 -9.631842934E+01  1.267747809E+02  1.057000000E-01  0.00000E+00  9.000E+00
      13     1     3     3     0     0 -7.338423104E+01 -1.146132445E+02 -1.258669513E+02  1.853751379E+02  1.057000000E-01  0.00000E+00  9.000E+00
      -1     1     1     2     0   501  2.863688948E+02 -1.323104043E+02 -3.323447598E+02  4.582208368E+02  3.300000000E-01  0.00000E+00  9.000E+00
      -4     1     1     2     0   511 -4.104235825E+01 -3.339690255E+01 -2.341297547E+02  2.400392058E+02  1.500000000E+00  0.00000E+00  9.000E+00
      21     1     1     2   511   502 -9.020514700E+01  2.909803353E+02  1.648949926E+02  3.464056620E+02  1.009274029E-05  0.00000E+00  9.000E+00
</event>
<event>
      8  10001  1.95447E-02  1.81111E+02 -1.00000E+00  1.15225E-01
       1    -1     0     0   501     0  0.000000000E+00  0.000000000E+00  8.973027139E+02  8.973027139E+02  0.000000000E+00  0.00000E+00  9.000E+00
       1    -1     0     0   502     0  0.000000000E+00  0.000000000E+00 -8.724797196E+01  8.724797196E+01  0.000000000E+00  0.00000E+00  9.000E+00
      23     2     1     2     0     0  1.687860399E+01 -7.924086402E+01  5.313590302E+02  5.451804033E+02  9.118800000E+01  0.00000E+00  9.000E+00
     -13     1     3     3     0     0 -2.684054479E+01 -1.560689983E+01  6.017282255E+01  6.771092906E+01  1.057000000E-01  0.00000E+00  9.000E+00
      13     1     3     3     0     0  4.371914878E+01 -6.363396419E+01  4.711862076E+02  4.774694742E+02  1.057000000E-01  0.00000E+00  9.000E+00
       1     1     1     2   512     0 -1.753914665E+00 -7.481010256E+00  7.282562763E+00  1.059180587E+01  3.300000000E-01  0.00000E+00  9.000E+00
       1     1     1     2   502     0 -2.848413887E+01  6.869170246E+01 -6.064840902E+01  9.595954654E+01  3.300000000E-01  0.00000E+00  9.000E+00
      21     1     1     2   501   512  1.335944955E+01  1.803017182E+01  3.320615580E+02  3.328189302E+02  3.814697266E-06  0.00000E+00  9.000E+00
</event>
<event>
      8  10001  1.11145E-02  1.73273E+02 -1.00000E+00  1.15976E-01
       1    -1     0     0   501     0  0.000000000E+00  0.000000000E+00  2.187548513E+02  2.187548513E+02  0.000000000E+00  0.00000E+00  9.000E+00
       2    -1     0     0   502     0  0.000000000E+00  0.000000000E+00 -5.631131621E+02  5.631131621E+02  0.000000000E+00  0.00000E+00  9.000E+00
      23     2     1     2     0     0  4.663830317E+01  4.989722571E+01 -4.854565953E+02  4.986463895E+02  9.118800000E+01  0.00000E+00  9.000E+00
     -13     1     3     3     0     0  4.111169735E+01  6.707033148E+01 -4.639625728E+02  4.705846164E+02  1.057000000E-01  0.00000E+00  9.000E+00
      13     1     3     3     0     0  5.526605817E+00 -1.717310577E+01 -2.149402250E+01  2.806177310E+01  1.057000000E-01  0.00000E+00  9.000E+00
       2     1     1     2   501     0 -6.237844311E+01  2.689969135E+01  1.118590841E+02  1.308710325E+02  3.300000000E-01  0.00000E+00  9.000E+00
       1     1     1     2   511     0  1.975861488E+01 -6.043144544E+01 -4.392037657E+01  7.727529255E+01  3.300000000E-01  0.00000E+00  9.000E+00
      21     1     1     2   502   511 -4.018474948E+00 -1.636547162E+01  7.315957695E+01  7.507529888E+01  1.348699152E-06  0.00000E+00  9.000E+00
</event>
<event>
      8  10001  1.10918E-02  1.28113E+02 -1.00000E+00  1.21381E-01
       2    -1     0     0   501     0  0.000000000E+00  0.000000000E+00  3.590914487E+02  3.590914487E+02  0.000000000E+00  0.00000E+00  9.000E+00
      -1    -1     0     0     0   502  0.000000000E+00  0.000000000E+00 -1.964052921E+02  1.964052921E+02  0.000000000E+00  0.00000E+00  9.000E+00
      23     2     1     2     0     0  1.406081925E+02  1.095202400E+02  2.492091884E+02  3.196651650E+02  9.118800000E+01  0.00000E+00  9.000E+00
     -13     1     3     3     0     0  1.006008887E+02  1.082033808E+02  2.342130243E+02  2.769192344E+02  1.057000000E-01  0.00000E+00  9.000E+00
      13     1     3     3     0     0  4.000730380E+01  1.316859227E+00  1.499616409E+01  4.274593063E+01  1.057000000E-01  0.00000E+00  9.000E+00
       2     1     1     2   512     0  6.636918753E+00 -4.983600947E-01  2.133254312E+01  2.234912413E+01  3.300000000E-01  0.00000E+00  9.000E+00
      -1     1     1     2     0   502 -1.020254541E+02 -8.263200382E+01 -8.464205107E+01  1.562102015E+02  3.300000000E-01  0.00000E+00  9.000E+00
      21     1     1     2   501   512 -4.521965716E+01 -2.638987610E+01 -2.321352383E+01  5.727225020E+01  3.286373318E-06  0.00000E+00  9.000E+00
</event>
<event>
      8  10001  1.45845E-02  1.28263E+02 -1.00000E+00  1.21359E-01
      21    -1     0     0   511   501  0.000000000E+00  0.000000000E+00  4.099258664E+01  4.099258664E+01  0.000000000E+00  0.00000E+00  9.000E+00
       2    -1     0     0   502     0  0.000000000E+00  0.000000000E+00 -3.067946034E+03  3.067946034E+03  0.000000000E+00  0.00000E+00  9.000E+00
      23     2     1     2     0     0 -7.723791388E+01  1.032719924E+02 -2.656666122E+02  3.090708656E+02  9.118800000E+01  0.00000E+00  9.000E+00
     -13     1     3     3     0     0 -3.900050006E+01 -3.572853372E+00 -1.074501151E+02  1.143649539E+02  1.057000000E-01  0.00000E+00  9.000E+00
      13     1     3     3     0     0 -3.823741382E+01  1.068448458E+02 -1.582164971E+02  1.947059116E+02  1.057000000E-01  0.00000E+00  9.000E+00
      -4     1     1     2     0   501 -7.028139700E+00 -1.340523429E+01  7.464921264E-01  1.522833887E+01  1.500000000E+00  0.00000E+00  9.000E+00
       2     1     1     2   502     0 -5.206855140E+00  2.029270510E+00 -2.409332384E+03  2.409338887E+03  3.300000000E-01  0.00000E+00  9.000E+00
       4     1     1     2   511     0  8.947290872E+01 -9.189602865E+01 -3.527009435E+02  3.753005290E+02  1.500000000E+00  0.00000E+00  9.000E+00
</event>
<event>
      8  10001  2.34549E-02  6.56759E+01 -1.00000E+00  1.35392E-01
      -1    -1     0     0     0   501  0.000000000E+00  0.000000000E+00  7.504774923E+02  7.504774923E+02  0.000000000E+00  0.00000E+00  9.000E+00
       2    -1     0     0   502     0  0.000000000E+00  0.000000000E+00 -1.383475086E+02  1.383475086E+02  0.000000000E+00  0.00000E+00  9.000E+00
      23     2     1     2     0     0 -1.135536173E+01  8.754762336E+00  3.711533924E+02  3.824600400E+02  9.118800000E+01  0.00000E+00  9.000E+00
     -13     1     3     3     0     0  9.365094673E-03  2.217193291E+01  1.717750170E+01  2.804768143E+01  1.057000000E-01  0.00000E+00  9.000E+00
      13     1     3     3     0     0 -1.136472683E+01 -1.341717057E+01  3.539758907E+02  3.544123585E+02  1.057000000E-01  0.00000E+00  9.000E+00
      -1     1     1     2     0   511  1.129249091E+01 -3.812965541E+00  4.505444541E+01  4.660548260E+01  3.300000000E-01  0.00000E+00  9.000E+00
       2     1     1     2   502     0 -1.326137696E+01  9.977779645E+00 -1.310896840E+02  1.321364232E+02  3.300000000E-01  0.00000E+00  9.000E+00
      21     1     1     2   511   501  1.332424778E+01 -1.491957644E+01  3.270118299E+02  3.276230551E+02  3.814697266E-06  0.00000E+00  9.000E+00
</event>
<event>
      8  10001  1.42709E-02  1.00144E+02 -1.00000E+00  1.26187E-01
       1    -1     0     0   501     0  0.000000000E+00  0.000000000E+00  2.546486416E+03  2.546486416E+03  0.000000000E+00  0.00000E+00  9.000E+00
       2    -1     0     0   502     0  0.000000000E+00  0.000000000E+00 -2.472348771E+01  2.472348771E+01  0.000000000E+00  0.00000E+00  9.000E+00
      23     2     1     2     0     0  1.043029370E+02 -2.164651690E+01  1.955122361E+02  2.405991691E+02  9.118800000E+01  0.00000E+00  9.000E+00
     -13     1     3     3     0     0  2.315918666E+01 -4.929615514E+01  7.338747375E+01  9.139032397E+01  1.057000000E-01  0.00000E+00  9.000E+00
      13     1     3     3     0     0  8.114375034E+01  2.764963824E+01  1.221247623E+02  1.492088451E+02  1.057000000E-01  0.00000E+00  9.000E+00
       2     1     1     2   501     0 -8.599866759E+01  1.642430100E+01  1.792445472E+03  1.794582516E+03  3.300000000E-01  0.00000E+00  9.000E+00
       1     1     1     2   511     0  5.291786542E+00  6.839127338E+00  2.148385445E+01  2.316120829E+01  3.300000000E-01  0.00000E+00  9.000E+00
      21     1     1     2   502   511 -2.359605595E+01 -1.616911438E+00  5.123213666E+02  5.128670110E+02  1.868812365E-05  0.00000E+00  9.000E+00
</event>
<event>
      8  10001  2.31386E-02  3.21125E+02 -1.00000E+00  1.06329E-01
      -2    -1     0     0     0   501  0.000000000E+00  0.000000000E+00  9.422297906E+02  9.422297906E+02  0.000000000E+00  0.00000E+00  9.000E+00
       2    -1     0     0   502     0  0.000000000E+00  0.000000000E+00 -9.863943057E+01  9.863943057E+01  0.000000000E+00  0.00000E+00  9.000E+00
      23     2     1     2     0     0 -1.684244438E+01 -2.748546077E+01  9.188185479E+02  9.238949582E+02  9.118800000E+01  0.00000E+00  9.000E+00
     -13     1     3     3     0     0 -2.155999996E+01 -6.003714297E+01  6.178985022E+02  6.211826320E+02  1.057000000E-01  0.00000E+00  9.000E+00
      13     1     3     3     0     0  4.717555577E+00  3.255168221E+01  3.009200457E+02  3.027123262E+02  1.057000000E-01  0.00000E+00  9.000E+00
      -2     1     1     2     0   512  8.261115699E+00  1.383881296E+00  1.253060061E+01  1.507600781E+01  3.300000000E-01  0.00000E+00  9.000E+00
       2     1     1     2   502     0  2.160389568E+01  8.719843777E+00 -1.987589956E+01  3.062554926E+01  3.300000000E-01  0.00000E+00  9.000E+00
      21     1     1     2   512   501 -1.302256700E+01  1.738173569E+01 -6.788288895E+01  7.127270585E+01  6.810596875E-06  0.00000E+00  9.000E+00
</event>
<event>
      8  10001  1.05342E-02  3.64939E+02 -1.00000E+00  1.04530E-01
       1    -1     0     0   501     0  0.000000000E+00  0.000000000E+00  8.889469034E+02  8.889469034E+02  0.000000000E+00  0.00000E+00  9.000E+00
       4    -1     0     0   502     0  0.000000000E+00  0.000000000E+00 -2.700764635E+02  2.700764635E+02  0.000000000E+00  0.00000E+00  9.000E+00
      23     2     1     2     0     0 -2.872007934E+01 -7.885728405E+00 -3.383487323E+01  1.017205862E+02  9.118800000E+01  0.00000E+00  9.000E+00
     -13     1     3     3     0     0 -2.815151698E+01 -4.788520185E+01 -2.409579536E+01  6.054848463E+01  1.057000000E-01  0.00000E+00  9.000E+00
      13     1     3     3     0     0 -5.685623599E-01  3.999947344E+01 -9.739077869E+00  4.117210159E+01  1.057000000E-01  0.00000E+00  9.000E+00
       2     1     1     2   501     0  2.436834703E+02  3.329306894E+01  3.543603409E+02  4.313483768E+02  3.300000000E-01  0.00000E+00  9.000E+00
       3     1     1     2   511     0 -2.883029182E+02 -5.103812822E+01 -2.457957818E+01  2.938160459E+02  5.000000000E-01  0.00000E+00  9.000E+00
      21     1     1     2   502   511  7.333952730E+01  2.563078768E+01  3.229245504E+02  3.321383579E+02  7.629394531E-06  0.00000E+00  9.000E+00
</event>
<event>
      8  10001  1.93999E-02  3.42442E+01 -1.00000E+00  1.52666E-01
       4    -1     0     0   501     0  0.000000000E+00  0.000000000E+00  2.229836196E+01  2.229836196E+01  0.000000000E+00  0.00000E+00  9.000E+00
       2    -1     0     0   502     0  0.000000000E+00  0.000000000E+00 -1.064544338E+03  1.064544338E+03  0.000000000E+00  0.00000E+00  9.000E+00
      23     2     1     2     0     0 -1.140691953E+02  2.561078623E+01 -2.980543875E+02  3.328954234E+02  9.118800000E+01  0.00000E+00  9.000E+00
     -13     1     3     3     0     0 -6.328107315E+01 -2.026316264E+01 -2.163018675E+02  2.262777034E+02  1.057000000E-01  0.00000E+00  9.000E+00
      13     1     3     3     0     0 -5.078812212E+01  4.587394887E+01 -8.175252002E+01  1.066177201E+02  1.057000000E-01  0.00000E+00  9.000E+00
       4     1     1     2   501     0  9.964637064E+01 -2.274365132E+01 -6.266858630E+02  6.349677895E+02  1.500000000E+00  0.00000E+00  9.000E+00
       2     1     1     2   512     0 -1.475249943E+00 -1.675323930E+00 -7.747027529E+00  8.068978139E+00  3.300000000E-01  0.00000E+00  9.000E+00
      21     1     1     2   502   512  1.589807458E+01 -1.191810974E+00 -1.097586984E+02  1.109105093E+02  4.046097457E-06  0.00000E+00  9.000E+00
</event>
<event>
      8  10001  1.35724E+00  4.57658E+00 -1.00000E+00  2.60888E-01
      21    -1     0     0   501   511  0.000000000E+00  0.000000000E+00  5.813117058E+02  5.813117058E+02  0.000000000E+00  0.00000E+00  9.000E+00
       2    -1     0     0   502     0  0.000000000E+00  0.000000000E+00 -8.270104094E+01  8.270104094E+01  0.000000000E+00  0.00000E+00  9.000E+00
      23     2     1     2     0     0  9.396247248E+00  4.286316408E+01  2.234833671E+02  2.453275504E+02  9.118800000E+01  0.00000E+00  9.000E+00
     -13     1     3     3     0     0 -8.287661054E+00  5.107712209E+01  2.193822674E+02  2.254021920E+02  1.057000000E-01  0.00000E+00  9.000E+00
      13     1     3     3     0     0  1.768390830E+01 -8.213958007E+00  4.101099693E+00  1.992535847E+01  1.057000000E-01  0.00000E+00  9.000E+00
       3     1     1     2   501     0 -1.205448436E+01 -4.544613518E+01  3.399668549E+02  3.432031093E+02  5.000000000E-01  0.00000E+00  9.000E+00
       2     1     1     2   502     0  3.574180224E+00 -1.900653382E+00 -6.909428160E+01  6.921355284E+01  3.300000000E-01  0.00000E+00  9.000E+00
      -3     1     1     2     0   511 -9.159431113E-01  4.483624481E+00  4.254724504E+00  6.268534188E+00  5.000000000E-01  0.00000E+00  9.000E+00
</event>
<event>
      8  10001  3.65144E-02  1.17769E+02 -1.00000E+00  1.22981E-01
       2    -1     0     0   501     0  0.000000000E+00  0.000000000E+00  1.226887020E+02  1.226887020E+02  0.000000000E+00  0.00000E+00  9.000E+00
       1    -1     0     0   502     0  0.000000000E+00  0.000000000E+00 -2.048590674E+02  2.048590674E+02  0.000000000E+00  0.00000E+00  9.000E+00
      23     2     1     2     0     0  1.862819738E+01  3.950669780E-01  8.325177871E+01  1.248730388E+02  9.118800000E+01  0.00000E+00  9.000E+00
     -13     1     3     3     0     0  2.365601937E+01  4.045762067E+01  6.604208622E+01  8.098144631E+01  1.057000000E-01  0.00000E+00  9.000E+00
      13     1     3     3     0     0 -5.027821992E+00 -4.006255369E+01  1.720969250E+01  4.389159248E+01  1.057000000E-01  0.00000E+00  9.000E+00
       1     1     1     2   511     0  1.482192951E+01  7.087076955E-01  1.357689100E+01  2.011548484E+01  3.300000000E-01  0.00000E+00  9.000E+00
       2     1     1     2   502     0 -2.435422975E+01 -4.113262203E+00 -1.011286215E+02  1.041016543E+02  3.300000000E-01  0.00000E+00  9.000E+00
      21     1     1     2   501   511 -9.095897138E+00  3.009487530E+00 -7.787041357E+01  7.845759154E+01  2.132480600E-06  0.00000E+00  9.000E+00
</event>
<event>
      8  10001  1.07098E-02  2.42491E+01 -1.00000E+00  1.63804E-01
      -4    -1     0     0     0   501  0.000000000E+00  0.000000000E+00  5.548224035E+01  5.548224035E+01  0.000000000E+00  0.00000E+00  9.000E+00
       2    -1     0     0   502     0  0.000000000E+00  0.000000000E+00 -3.210189926E+03  3.210189926E+03  0.000000000E+00  0.00000E+00  9.000E+00
      23     2     1     2     0     0  3.537481780E+02 -2.172484018E+02 -1.575981773E+03  1.632289325E+03  9.118800000E+01  0.00000E+00  9.000E+00
     -13     1     3     3     0     0  1.248010566E+02 -6.521384447E+01 -3.831361796E+02  4.081929599E+02  1.057000000E-01  0.00000E+00  9.000E+00
      13     1     3     3     0     0  2.289471214E+02 -1.520345573E+02 -1.192845593E+03  1.224096365E+03  1.057000000E-01  0.00000E+00  9.000E+00
      -4     1     1     2     0   501 -2.617055723E+02  1.636658779E+02 -1.103996850E+03  1.146336609E+03  1.500000000E+00  0.00000E+00  9.000E+00
       2     1     1     2   511     0 -4.027989319E+01  2.470785738E+01 -2.613596862E+02  2.655973315E+02  3.300000000E-01  0.00000E+00  9.000E+00
      21     1     1     2   502   511 -5.176271245E+01  2.887466646E+01 -2.133693764E+02  2.214489006E+02  0.000000000E+00  0.00000E+00  9.000E+00
</event>
<event>
      8  10001  1.08877E-02  1.49560E+02 -1.00000E+00  1.18548E-01
       2    -1     0     0   501     0  0.000000000E+00  0.000000000E+00  6.368625753E+02  6.368625753E+02  0.000000000E+00  0.00000E+00  9.000E+00
       4    -1     0     0   502     0  0.000000000E+00  0.000000000E+00 -8.846902229E+01  8.846902229E+01  0.000000000E+00  0.00000E+00  9.000E+00
      23     2     1     2     0     0  5.474444804E+01 -1.465590631E+01  1.877781739E+02  2.163045171E+02  9.118800000E+01  0.00000E+00  9.000E+00
     -13     1     3     3     0     0  2.983012274E+01 -4.897635581E+01  1.456229935E+02  1.565074664E+02  1.057000000E-01  0.00000E+00  9.000E+00
      13     1     3     3     0     0  2.491432530E+01  3.432044950E+01  4.215518047E+01  5.979705070E+01  1.057000000E-01  0.00000E+00  9.000E+00
       2     1     1     2   501     0  8.138384214E+01  6.105556165E+00 -2.971374022E+01  8.685403177E+01  3.300000000E-01  0.00000E+00  9.000E+00
       4     1     1     2   512     0 -3.281466415E+01 -3.190387642E+01  7.478629072E+01  8.769206802E+01  1.500000000E+00  0.00000E+00  9.000E+00
      21     1     1     2   502   512 -1.033136260E+02  4.045422656E+01  3.155428286E+02  3.344809807E+02  1.265191952E-05  0.00000E+00  9.000E+00
</event>
<event>
      8  10001  1.85268E-01  8.34621E+00 -1.00000E+00  2.12172E-01
      -2    -1     0     0     0   501  0.000000000E+00  0.000000000E+00  2.857561124E+02  2.857561124E+02  0.000000000E+00  0.00000E+00  9.000E+00
      -4    -1     0     0     0   502  0.000000000E+00  0.000000000E+00 -3.951607552E+01  3.951607552E+01  0.000000000E+00  0.00000E+00  9.000E+00
      23     2     1     2     0     0 -5.755905418E+00  6.761726164E+00  2.717096275E+02  2.867406919E+02  9.118800000E+01  0.00000E+00  9.000E+00
     -13     1     3     3     0     0 -4.825354296E+01  7.617779818E+00  1.344340422E+02  1.430348135E+02  1.057000000E-01  0.00000E+00  9.000E+00
      13     1     3     3     0     0  4.249763754E+01 -8.560536537E-01  1.372755852E+02  1.437058784E+02  1.057000000E-01  0.00000E+00  9.000E+00
      -2     1     1     2     0   501 -4.900752866E+00 -7.016604419E+00 -2.438903368E+01  2.584925493E+01  3.300000000E-01  0.00000E+00  9.000E+00
      -4     1     1     2     0   511  1.222264488E+00  5.264322624E-01 -2.427161804E+00  3.148360816E+00  1.500000000E+00  0.00000E+00  9.000E+00
      21     1     1     2   511   502  9.434393796E+00 -2.715540073E-01  1.346604853E+00  9.533880244E+00  1.679275583E-07  0.00000E+00  9.000E+00
</event>
<event>
      8  10001  1.07650E-02  1.32303E+02 -1.00000E+00  1.20781E-01
       1    -1     0     0   501     0  0.000000000E+00  0.000000000E+00  1.678095984E+03  1.678095984E+03  0.000000000E+00  0.00000E+00  9.000E+00
       3    -1     0     0   502     0  0.000000000E+00  0.000000000E+00 -3.838270265E+02  3.838270265E+02  0.000000000E+00  0.00000E+00  9.000E+00
      23     2     1     2     0     0 -1.346579420E+01 -5.543859044E+01  1.528231275E+03  1.532012026E+03  9.118800000E+01  0.00000E+00  9.000E+00
     -13     1     3     3     0     0  3.498201519E+01 -3.517354888E+01  9.849537882E+02  9.862022592E+02  1.057000000E-01  0.00000E+00  9.000E+00
      13     1     3     3     0     0 -4.844780939E+01 -2.026504156E+01  5.432774869E+02  5.458097664E+02  1.057000000E-01  0.00000E+00  9.000E+00
       1     1     1     2   501     0  8.925218333E+01  1.989810647E+01 -3.018286866E+02  3.153768409E+02  3.300000000E-01  0.00000E+00  9.000E+00
       3     1     1     2   512     0 -5.553168079E+01 -1.715835022E+01 -5.455840643E+01  7.971854405E+01  5.000000000E-01  0.00000E+00  9.000E+00
      21     1     1     2   502   512 -2.025470834E+01  5.269883419E+01  1.224247751E+02  1.348155996E+02  1.348699152E-06  0.00000E+00  9.000E+00
</event>
<event>
      8  10001  1.14934E-02  2.72476E+02 -1.00000E+00  1.08734E-01
       1    -1     0     0   501     0  0.000000000E+00  0.000000000E+00  2.268396837E+02  2.268396837E+02  0.000000000E+00  0.00000E+00  9.000E+00
       2    -1     0     0   502     0  0.000000000E+00  0.000000000E+00 -6.409392729E+02  6.409392729E+02  0.000000000E+00  0.00000E+00  9.000E+00
      23     2     1     2     0     0 -2.053188235E+02 -3.488428217E+01 -3.021054170E+02  3.780947854E+02  9.118800000E+01  0.00000E+00  9.000E+00
     -13     1     3     3     0     0 -2.102265955E+02 -1.974512484E+01 -2.854389235E+02  3.550499706E+02  1.057000000E-01  0.00000E+00  9.000E+00
      13     1     3     3     0     0  4.907772015E+00 -1.513915733E+01 -1.666649358E+01  2.304481485E+01  1.057000000E-01  0.00000E+00  9.000E+00
       2     1     1     2   511     0  1.225445803E+02  3.905614403E+01  7.557010748E+01  1.491760926E+02  3.300000000E-01  0.00000E+00  9.000E+00
       1     1     1     2   502     0  8.743552660E+01  2.369008049E+01  4.850324331E+01  1.027563367E+02  3.300000000E-01  0.00000E+00  9.000E+00
      21     1     1     2   501   511 -4.661283430E+00 -2.786194235E+01 -2.360675230E+02  2.377517419E+02  4.672030912E-06  0.00000E+00  9.000E+00
</event>
<event>
      8  10001  1.23770E-02  8.22095E+01 -1.00000E+00  1.30328E-01
       1    -1     0     0   501     0  0.000000000E+00  0.000000000E+00  8.350065733E+02  8.350065733E+02  0.000000000E+00  0.00000E+00  9.000E+00
      -3    -1     0     0     0   502  0.000000000E+00  0.000000000E+00 -4.711139720E+01  4.711139720E+01  0.000000000E+00  0.00000E+00  9.000E+00
      23     2     1     2     0     0 -1.465766000E+01 -9.498635536E+01  1.783939427E+02  2.222091466E+02  9.118800000E+01  0.00000E+00  9.000E+00
     -13     1     3     3     0     0  4.575661834E+00 -8.241451441E+01  6.112464245E+01  1.027098922E+02  1.057000000E-01  0.00000E+00  9.000E+00
      13     1     3     3     0     0 -1.923332183E+01 -1.257184095E+01  1.172693002E+02  1.194992544E+02  1.057000000E-01  0.00000E+00  9.000E+00
       2     1     1     2   511     0  1.779492495E+01  2.298617602E+01  3.281871107E+01  4.384290523E+01  3.300000000E-01  0.00000E+00  9.000E+00
      -4     1     1     2     0   502  1.352131695E+01  5.349672702E+01  5.866544790E+02  5.892456648E+02  1.500000000E+00  0.00000E+00  9.000E+00
      21     1     1     2   501   511 -1.665858190E+01  1.850345232E+01 -9.971956616E+00  2.682025387E+01  1.911070292E-06  0.00000E+00  9.000E+00
</event>
<event>
      8  10001  1.10328E-02  4.15340E+02 -1.00000E+00  1.02772E-01
       3    -1     0     0   501     0  0.000000000E+00  0.000000000E+00  2.381890564E+02  2.381890564E+02  0.000000000E+00  0.00000E+00  9.000E+00
      -1    -1     0     0     0   502  0.000000000E+00  0.000000000E+00 -2.973666519E+02  2.973666519E+02  0.000000000E+00  0.00000E+00  9.000E+00
      23     2     1     2     0     0 -2.024603215E+01  1.799501249E+02 -1.345211479E+02  2.433169535E+02  9.118800000E+01  0.00000E+00  9.000E+00
     -13     1     3     3     0     0 -3.670716181E+01  1.683984681E+02 -8.993692808E+01  1.944071038E+02  1.057000000E-01  0.00000E+00  9.000E+00
      13     1     3     3     0     0  1.646112965E+01  1.155165673E+01 -4.458421985E+01  4.890984967E+01  1.057000000E-01  0.00000E+00  9.000E+00
       4     1     1     2   501     0 -5.464904309E+01 -4.188123894E+01 -8.047421200E+00  6.933662145E+01  1.500000000E+00  0.00000E+00  9.000E+00
      -2     1     1     2     0   511 -1.515709287E+01  9.446419854E+00 -1.561262126E+01  2.372414709E+01  3.300000000E-01  0.00000E+00  9.000E+00
      21     1     1     2   511   502  9.005216812E+01 -1.475153058E+02  9.900359494E+01  1.991779863E+02  2.697398305E-06  0.00000E+00  9.000E+00
</event>
<event>
      8  10001  1.31892E-02  1.00864E+02 -1.00000E+00  1.26042E-01
       2    -1     0     0   501     0  0.000000000E+00  0.000000000E+00  1.512630747E+02  1.512630747E+02  0.000000000E+00  0.00000E+00  9.000E+00
       1    -1     0     0   502     0  0.000000000E+00  0.000000000E+00 -3.985454247E+02  3.985454247E+02  0.000000000E+00  0.00000E+00  9.000E+00
      23     2     1     2     0     0  5.692289517E+00  5.796611260E+01 -2.061686784E+02  2.328373846E+02  9.118800000E+01  0.00000E+00  9.000E+00
     -13     1     3     3     0     0  4.204461492E+01  5.619394698E+01 -1.538822509E+02  1.691309186E+02  1.057000000E-01  0.00000E+00  9.000E+00
      13     1     3     3     0     0 -3.635232540E+01  1.772165627E+00 -5.228642745E+01  6.370646593E+01  1.057000000E-01  0.00000E+00  9.000E+00
       2     1     1     2   501     0 -2.775732342E+01 -2.503289233E+01  1.246221959E+02  1.301073223E+02  3.300000000E-01  0.00000E+00  9.000E+00
       1     1     1     2   512     0  3.336152046E+01 -2.911443272E+01 -3.736052036E+01  5.793581467E+01  3.300000000E-01  0.00000E+00  9.000E+00
      21     1     1     2   502   512 -1.129648655E+01 -3.818787547E+00 -1.283753472E+02  1.289279780E+02  3.814697266E-06  0.00000E+00  9.000E+00
</event>
<event>
      8  10001  1.31591E-02  1.37584E+02 -1.00000E+00  1.20059E-01
       2    -1     0     0   501     0  0.000000000E+00  0.000000000E+00  3.881688987E+01  3.881688987E+01  0.000000000E+00  0.00000E+00  9.000E+00
       2    -1     0     0   502     0  0.000000000E+00  0.000000000E+00 -1.825696397E+03  1.825696397E+03  0.000000000E+00  0.00000E+00  9.000E+00
      23     2     1     2     0     0  1.862170534E+01 -8.584265566E-01 -6.688123903E+02  6.752575579E+02  9.118800000E+01  0.00000E+00  9.000E+00
     -13     1     3     3     0     0  3.005253792E+01 -1.693557870E+01 -9.438159917E+01  1.004881401E+02  1.057000000E-01  0.00000E+00  9.000E+00
      13     1     3     3     0     0 -1.143083257E+01  1.607715215E+01 -5.744307911E+02  5.747694179E+02  1.057000000E-01  0.00000E+00  9.000E+00
       2     1     1     2   501     0  2.933149601E+01 -1.375833422E+01  2.588541705E+01  4.147037659E+01  3.300000000E-01  0.00000E+00  9.000E+00
       2     1     1     2   511     0 -3.822926185E+01  1.385232555E+01 -2.167348153E+02  2.205163314E+02  3.300000000E-01  0.00000E+00  9.000E+00
      21     1     1     2   502   511 -9.723939505E+00  7.644352298E-01 -9.272177185E+02  9.272690208E+02  3.737624730E-05  0.00000E+00  9.000E+00
</event>
<event>
      8  10001  1.05530E-02  6.37501E+02 -1.00000E+00  9.73571E-02
       4    -1     0     0   501     0  0.000000000E+00  0.000000000E+00  1.146807824E+02  1.146807824E+02  0.000000000E+00  0.00000E+00  9.000E+00
       2    -1     0     0   502     0  0.000000000E+00  0.000000000E+00 -1.386724883E+03  1.386724883E+03  0.000000000E+00  0.00000E+00  9.000E+00
      23     2     1     2     0     0  1.441783898E+01  4.450857612E+01 -9.433685713E+01  1.392967386E+02  9.118800000E+01  0.00000E+00  9.000E+00
     -13     1     3     3     0     0 -2.786871493E+01  5.250575491E+01 -5.567639580E+01  8.144563703E+01  1.057000000E-01  0.00000E+00  9.000E+00
      13     1     3     3     0     0  4.228655391E+01 -7.997178790E+00 -3.866046133E+01  5.785110157E+01  1.057000000E-01  0.00000E+00  9.000E+00
       4     1     1     2   501     0  5.193104059E+01 -9.425623524E+01 -3.333350224E+02  3.502792572E+02  1.500000000E+00  0.00000E+00  9.000E+00
       2     1     1     2   512     0  1.389762427E+02 -1.145375560E+02 -6.760145178E+02  6.995920132E+02  3.300000000E-01  0.00000E+00  9.000E+00
      21     1     1     2   502   512 -2.053251222E+02  1.642852151E+02 -1.683577030E+02  3.122376561E+02  0.000000000E+00  0.00000E+00  9.000E+00
</event>
<event>
      8  10001  1.18515E-02  1.09479E+02 -1.00000E+00  1.24404E-01
      -2    -1     0     0     0   501  0.000000000E+00  0.000000000E+00  2.268531158E+02  2.268531158E+02  0.000000000E+00  0.00000E+00  9.000E+00
       2    -1     0     0   502     0  0.000000000E+00  0.000000000E+00 -1.358131298E+02  1.358131298E+02  0.000000000E+00  0.00000E+00  9.000E+00
      23     2     1     2     0     0 -2.029096556E+01  1.170712238E+02 -4.131321364E+01  1.553686831E+02  9.118800000E+01  0.00000E+00  9.000E+00
     -13     1     3     3     0     0  6.328764027E+00 -1.297182933E+01 -1.346497133E+01  1.973925620E+01  1.057000000E-01  0.00000E+00  9.000E+00
      13     1     3     3     0     0 -2.661972959E+01  1.300430531E+02 -2.784824231E+01  1.356294269E+02  1.057000000E-01  0.00000E+00  9.000E+00
      -2     1     1     2     0   501 -1.735034109E+01 -9.702296455E+01  4.738665289E+01  1.093622136E+02  3.300000000E-01  0.00000E+00  9.000E+00
       2     1     1     2   511     0  2.932573483E+00 -2.398954359E-01 -1.007143259E+00  3.127422996E+00  3.300000000E-01  0.00000E+00  9.000E+00
      21     1     1     2   502   511  3.470873317E+01 -1.980836381E+01  8.597368999E+01  9.480792586E+01  1.651812370E-06  0.00000E+00  9.000E+00
</event>
<event>
      8  10001  1.09346E-02  2.02402E+02 -1.00000E+00  1.13382E-01
      -1    -1     0     0     0   501  0.000000000E+00  0.000000000E+00  5.297152865E+02  5.297152865E+02  0.000000000E+00  0.00000E+00  9.000E+00
      -2    -1     0     0     0   502  0.000000000E+00  0.000000000E+00 -1.025913135E+02  1.025913135E+02  0.000000000E+00  0.00000E+00  9.000E+00
      23     2     1     2     0     0  4.381235500E+01  1.251036025E+00  2.129215277E+01  1.033909796E+02  9.118800000E+01  0.00000E+00  9.000E+00
     -13     1     3     3     0     0  5.030129129E+01 -3.212059409E+01  3.203617762E+01  6.773684610E+01  1.057000000E-01  0.00000E+00  9.000E+00
      13     1     3     3     0     0 -6.488936290E+00  3.337163012E+01 -1.074402485E+01  3.565413347E+01  1.057000000E-01  0.00000E+00  9.000E+00
      -2     1     1     2     0   512  7.287080916E+01 -7.173999884E+01  1.338512193E+02  1.684429876E+02  3.300000000E-01  0.00000E+00  9.000E+00
      -1     1     1     2     0   502 -5.225098658E+01  3.808294854E+01  2.804936984E+02  2.878494404E+02  3.300000000E-01  0.00000E+00  9.000E+00
      21     1     1     2   512   501 -6.443217758E+01  3.240601428E+01 -8.513097448E+00  7.262319255E+01  2.061321314E-06  0.00000E+00  9.000E+00
</event>
<event>
      8  10001  2.14239E-02  9.08758E+01 -1.00000E+00  1.28190E-01
       1    -1     0     0   501     0  0.000000000E+00  0.000000000E+00  1.624527733E+03  1.624527733E+03  0.000000000E+00  0.00000E+00  9.000E+00
       2    -1     0     0   502     0  0.000000000E+00  0.000000000E+00 -5.134776478E+01  5.134776478E+01  0.000000000E+00  0.00000E+00  9.000E+00
      23     2     1     2     0     0  4.541891174E+00  1.006094880E+02  4.595572626E+02  4.792191845E+02  9.118800000E+01  0.00000E+00  9.000E+00
     -13     1     3     3     0     0  2.121232962E+01  2.273007457E+01  3.319156941E+01  4.547868369E+01  1.057000000E-01  0.00000E+00  9.000E+00
      13     1     3     3     0     0 -1.667043844E+01  7.787941345E+01  4.263656932E+02  4.337405008E+02  1.057000000E-01  0.00000E+00  9.000E+00
       1     1     1     2   511     0 -2.378205440E+00 -2.783519574E+01  8.229757884E+00  2.912544932E+01  3.300000000E-01  0.00000E+00  9.000E+00
       2     1     1     2   502     0  3.931600558E+00 -8.783192679E+01  1.132511498E+03  1.135919147E+03  3.300000000E-01  0.00000E+00  9.000E+00
      21     1     1     2   501   511 -6.095286292E+00  1.505763452E+01 -2.711855073E+01  3.161171722E+01  6.494445072E-06  0.00000E+00  9.000E+00
</event>
<event>
      8  10001  1.15218E-02  1.27565E+02 -1.00000E+00  1.21462E-01
      -4    -1     0     0     0   501  0.000000000E+00  0.000000000E+00  1.452063515E+02  1.452063515E+02  0.000000000E+00  0.00000E+00  9.000E+00
      -1    -1     0     0     0   502  0.000000000E+00  0.000000000E+00 -5.328482302E+02  5.328482302E+02  0.000000000E+00  0.00000E+00  9.000E+00
      23     2     1     2     0     0  2.600430264E+01 -2.594285052E+01  6.036687699E+01  1.153631936E+02  9.118800000E+01  0.00000E+00  9.000E+00
     -13     1     3     3     0     0  5.383517787E+01 -3.736926735E+01  5.326645497E+01  8.445125764E+01  1.057000000E-01  0.00000E+00  9.000E+00
      13     1     3     3     0     0 -2.783087523E+01  1.142641683E+01  7.100422016E+00  3.091193593E+01  1.057000000E-01  0.00000E+00  9.000E+00
      -3     1     1     2     0   501 -2.776880028E+01  7.377667730E+01 -4.708838997E+02  4.774369082E+02  5.000000000E-01  0.00000E+00  9.000E+00
      -2     1     1     2     0   511 -8.234456676E-01 -2.541543537E+01 -2.289796299E+01  3.422057900E+01  3.300000000E-01  0.00000E+00  9.000E+00
      21     1     1     2   511   502  2.587943311E+00 -2.241839141E+01  4.577310697E+01  5.103390095E+01  1.348699152E-06  0.00000E+00  9.000E+00
</event>
<event>
      8  10001  1.10506E-02  2.89531E+02 -1.00000E+00  1.07832E-01
      -3    -1     0     0     0   501  0.000000000E+00  0.000000000E+00  2.105667682E+02  2.105667682E+02  0.000000000E+00  0.00000E+00  9.000E+00
      -4    -1     0     0     0   502  0.000000000E+00  0.000000000E+00 -3.303977557E+02  3.303977557E+02  0.000000000E+00  0.00000E+00  9.000E+00
      23     2     1     2     0     0 -9.165552212E+01 -1.969918534E+01 -2.332045649E+02  2.673731720E+02  9.118800000E+01  0.00000E+00  9.000E+00
     -13     1     3     3     0     0 -4.252668374E+01  3.868826901E+00 -1.978802832E+02  2.024354325E+02  1.057000000E-01  0.00000E+00  9.000E+00
      13     1     3     3     0     0 -4.912883838E+01 -2.356801224E+01 -3.532428169E+01  6.493773950E+01  1.057000000E-01  0.00000E+00  9.000E+00
      -4     1     1     2     0   501  6.323493867E+01  7.978366224E+01  1.599746525E+01  1.030643446E+02  1.500000000E+00  0.00000E+00  9.000E+00
      -3     1     1     2     0   512  2.079290043E+01 -8.965213011E+00 -2.735329283E+01  3.551298891E+01  5.000000000E-01  0.00000E+00  9.000E+00
      21     1     1     2   512   502  7.627683022E+00 -5.111926389E+01  1.247294051E+02  1.350140185E+02  3.015782986E-06  0.00000E+00  9.000E+00
</event>
<event>
      8  10001  2.28804E+00  9.10770E+00 -1.00000E+00  2.07116E-01
       2    -1     0     0   501     0  0.000000000E+00  0.000000000E+00  1.555140664E+03  1.555140664E+03  0.000000000E+00  0.00000E+00  9.000E+00
       1    -1     0     0   502     0  0.000000000E+00  0.000000000E+00 -2.564927592E+01  2.564927592E+01  0.000000000E+00  0.00000E+00  9.000E+00
      23     2     1     2     0     0 -4.897228835E+00  2.554560729E+00  6.390428341E+01  1.114877456E+02  9.118800000E+01  0.00000E+00  9.000E+00
     -13     1     3     3     0     0  4.162821999E+01  2.142012017E+00  4.479486117E+01  6.118895060E+01  1.057000000E-01  0.00000E+00  9.000E+00
      13     1     3     3     0     0 -4.652544883E+01  4.125487125E-01  1.910942224E+01  5.029879498E+01  1.057000000E-01  0.00000E+00  9.000E+00
       2     1     1     2   501     0  8.262675053E-01 -5.884193905E+00  1.457680300E+03  1.457692447E+03  3.300000000E-01  0.00000E+00  9.000E+00
       1     1     1     2   511     0  4.255337736E+00  1.245827457E+00  8.360417505E+00  9.469185084E+00  3.300000000E-01  0.00000E+00  9.000E+00
      21     1     1     2   502   511 -1.843764058E-01  2.083805719E+00 -4.536124287E-01  2.140561881E+00  8.789790685E-07  0.00000E+00  9.000E+00
</event>
<event>
      8  10001  1.38544E-02  1.38057E+02 -1.00000E+00  1.19996E-01
       4    -1     0     0   501     0  0.000000000E+00  0.000000000E+00  2.663966375E+01  2.663966375E+01  0.000000000E+00  0.00000E+00  9.000E+00
      -1    -1     0     0     0   502  0.000000000E+00  0.000000000E+00 -4.975257708E+02  4.975257708E+02  0.000000000E+00  0.00000E+00  9.000E+00
      23     2     1     2     0     0  2.289119132E+01 -6.375859638E+00 -1.570483462E+02  1.831504644E+02  9.118800000E+01  0.00000E+00  9.000E+00
     -13     1     3     3     0     0  3.322937699E+01 -1.842059478E+00 -8.734594498E+00  3.440768797E+01  1.057000000E-01  0.00000E+00  9.000E+00
      13     1     3     3     0     0 -1.033818567E+01 -4.533800161E+00 -1.483137517E+02  1.487427764E+02  1.057000000E-01  0.00000E+00  9.000E+00
       4     1     1     2   512     0 -7.476750539E+00  1.066730584E+01 -6.678989836E-01  1.312971064E+01  1.500000000E+00  0.00000E+00  9.000E+00
      -1     1     1     2     0   502  1.994913982E+01  1.196632082E+01 -1.613848249E+01  2.831466989E+01  3.300000000E-01  0.00000E+00  9.000E+00
      21     1     1     2   501   512 -3.536358060E+01 -1.625776703E+01 -2.970313794E+02  2.995705896E+02  1.078959322E-05  0.00000E+00  9.000E+00
</event>
<event>
      8  10001  2.07004E-02  1.28630E+02 -1.00000E+00  1.21306E-01
       4    -1     0     0   501     0  0.000000000E+00  0.000000000E+00  5.818896819E+01  5.818896819E+01  0.000000000E+00  0.00000E+00  9.000E+00
       2    -1     0     0   502     0  0.000000000E+00  0.000000000E+00 -1.207638254E+03  1.207638254E+03  0.000000000E+00  0.00000E+00  9.000E+00
      23     2     1     2     0     0  8.829627824E+01 -2.603957631E+00 -6.911673614E+02  7.027308063E+02  9.118800000E+01  0.00000E+00  9.000E+00
     -13     1     3     3     0     0  5.356733395E+01 -2.516623603E+01 -1.716801945E+02  1.815954269E+02  1.057000000E-01  0.00000E+00  9.000E+00
      13     1     3     3     0     0  3.472894429E+01  2.256227840E+01 -5.194871669E+02  5.211353794E+02  1.057000000E-01  0.00000E+00  9.000E+00
       4     1     1     2   501     0  9.010375205E+00  1.018751119E+01  4.538068170E+01  4.739861303E+01  1.500000000E+00  0.00000E+00  9.000E+00
       2     1     1     2   511     0 -1.661054530E+01  1.062881657E+01 -3.872842052E+01  4.346126336E+01  3.300000000E-01  0.00000E+00  9.000E+00
      21     1     1     2   502   511 -8.069610814E+01 -1.821237013E+01 -4.649341860E+02  4.722365399E+02  1.427329020E-05  0.00000E+00  9.000E+00
</event>
<event>
      8  10001  1.07384E-02  1.93323E+02 -1.00000E+00  1.14136E-01
       2    -1     0     0   501     0  0.000000000E+00  0.000000000E+00  2.620713037E+02  2.620713037E+02  0.000000000E+00  0.00000E+00  9.000E+00
      -4    -1     0     0     0   502  0.000000000E+00  0.000000000E+00 -2.545047366E+02  2.545047366E+02  0.000000000E+00  0.00000E+00  9.000E+00
      23     2     1     2     0     0  8.947794233E+01 -4.051871697E+01 -1.252275030E+02  1.834264088E+02  9.118800000E+01  0.00000E+00  9.000E+00
     -13     1     3     3     0     0  2.643200240E+01 -3.768712988E+01 -1.089142092E+02  1.182424909E+02  1.057000000E-01  0.00000E+00  9.000E+00
      13     1     3     3     0     0  6.304593993E+01 -2.831587094E+00 -1.631329378E+01  6.518391791E+01  1.057000000E-01  0.00000E+00  9.000E+00
       1     1     1     2   501     0 -1.660521809E+02 -5.182863213E+00  6.195380266E+01  1.773092536E+02  3.300000000E-01  0.00000E+00  9.000E+00
      -3     1     1     2     0   512  9.204631305E+00  2.248053322E+01 -2.601419363E+01  3.559617791E+01  5.000000000E-01  0.00000E+00  9.000E+00
      21     1     1     2   512   502  6.736960724E+01  2.322104696E+01  9.685446107E+01  1.202442000E+02  2.697398305E-06  0.00000E+00  9.000E+00
</event>
<event>
      8  10001  1.06601E-02  5.41736E+02 -1.00000E+00  9.93446E-02
       2    -1     0     0   501     0  0.000000000E+00  0.000000000E+00  3.830009078E+02  3.830009078E+02  0.000000000E+00  0.00000E+00  9.000E+00
       3    -1     0     0   502     0  0.000000000E+00  0.000000000E+00 -5.825801103E+02  5.825801103E+02  0.000000000E+00  0.00000E+00  9.000E+00
      23     2     1     2     0     0  3.119848492E+00  7.763316820E+01  1.145203056E+02  1.657310894E+02  9.118800000E+01  0.00000E+00  9.000E+00
     -13     1     3     3     0     0 -9.480591823E+00 -1.434012815E+01  4.948071172E+01  5.238199024E+01  1.057000000E-01  0.00000E+00  9.000E+00
      13     1     3     3     0     0  1.260044031E+01  9.197329635E+01  6.503959387E+01  1.133490992E+02  1.057000000E-01  0.00000E+00  9.000E+00
       2     1     1     2   511     0  6.141815025E+01 -3.425847150E+01 -4.969571998E+00  7.050274885E+01  3.300000000E-01  0.00000E+00  9.000E+00
       3     1     1     2   502     0 -1.489237196E+02  6.758737960E+00  1.781404483E+02  2.322890960E+02  5.000000000E-01  0.00000E+00  9.000E+00
      21     1     1     2   501   511  8.438572083E+01 -5.013343466E+01 -4.872703845E+02  4.970580839E+02  9.344061824E-06  0.00000E+00  9.000E+00
</event>
<event>
      8  10001  1.05919E-02  4.34441E+02 -1.00000E+00  1.02175E-01
       2    -1     0     0   501     0  0.000000000E+00  0.000000000E+00  1.247373167E+03  1.247373167E+03  0.000000000E+00  0.00000E+00  9.000E+00
       1    -1     0     0   502     0  0.000000000E+00  0.000000000E+00 -5.456047024E+02  5.456047024E+02  0.000000000E+00  0.00000E+00  9.000E+00
      23     2     1     2     0     0 -6.432541935E+00 -4.375026112E+02 -9.356489379E+01  4.566394125E+02  9.118800000E+01  0.00000E+00  9.000E+00
     -13     1     3     3     0     0 -3.227583859E+01 -3.977367964E+02 -9.008363493E+01  4.090860074E+02  1.057000000E-01  0.00000E+00  9.000E+00
      13     1     3     3     0     0  2.584329666E+01 -3.976581476E+01 -3.481258859E+00  4.755340515E+01  1.057000000E-01  0.00000E+00  9.000E+00
       1     1     1     2   511     0  5.715859551E+01 -1.008151354E+02  8.875084901E+01  1.459712940E+02  3.300000000E-01  0.00000E+00  9.000E+00
       2     1     1     2   502     0 -9.369195397E+01  4.973538364E+02  8.755362032E+02  1.011287681E+03  3.300000000E-01  0.00000E+00  9.000E+00
      21     1     1     2   501   511  4.296590040E+01  4.096391018E+01 -1.689536935E+02  1.790794826E+02  1.160194880E-05  0.00000E+00  9.000E+00
</event>
<event>
      8  10001  1.28728E-02  3.85472E+01 -1.00000E+00  1.49197E-01
      -1    -1     0     0     0   501  0.000000000E+00  0.000000000E+00  8.404094493E+02  8.404094493E+02  0.000000000E+00  0.00000E+00  9.000E+00
       3    -1     0     0   502     0  0.000000000E+00  0.000000000E+00 -5.541906785E+01  5.541906785E+01  0.000000000E+00  0.00000E+00  9.000E+00
      23     2     1     2     0     0  8.688425387E+00  1.593026023E+02  1.440147429E+02  2.334701380E+02  9.118800000E+01  0.00000E+00  9.000E+00
     -13     1     3     3     0     0  1.033217984E+01 -7.968462467E+00  2.491127467E+01  2.812175515E+01  1.057000000E-01  0.00000E+00  9.000E+00
      13     1     3     3     0     0 -1.643754453E+00  1.672710647E+02  1.191034683E+02  2.053483829E+02  1.057000000E-01  0.00000E+00  9.000E+00
      -2     1     1     2     0   501 -7.978326389E-01 -3.183524126E+01  9.166967042E+01  9.704409563E+01  3.300000000E-01  0.00000E+00  9.000E+00
       4     1     1     2   511     0  1.496290659E+01 -6.841092746E+01  2.726229718E+02  2.814773140E+02  1.500000000E+00  0.00000E+00  9.000E+00
      21     1     1     2   502   511 -2.285349934E+01 -5.905643356E+01  2.766829963E+02  2.838369694E+02  1.321449896E-05  0.00000E+00  9.000E+00
</event>
<event>
      8  10001  1.05707E-02  5.16991E+02 -1.00000E+00  9.99308E-02
      -2    -1     0     0     0   501  0.000000000E+00  0.000000000E+00  8.246413343E+02  8.246413343E+02  0.000000000E+00  0.00000E+00  9.000E+00
      -3    -1     0     0     0   502  0.000000000E+00  0.000000000E+00 -6.517884680E+02  6.517884680E+02  0.000000000E+00  0.00000E+00  9.000E+00
      23     2     1     2     0     0 -2.220323969E+02 -7.753564878E+01  5.988245110E+02  6.497816621E+02  9.118800000E+01  0.00000E+00  9.000E+00
     -13     1     3     3     0     0 -1.069692600E+02  1.032705832E+01  2.544629775E+02  2.762254311E+02  1.057000000E-01  0.00000E+00  9.000E+00
      13     1     3     3     0     0 -1.150631369E+02 -8.786270710E+01  3.443615335E+02  3.735562310E+02  1.057000000E-01  0.00000E+00  9.000E+00
      -1     1     1     2     0   512 -5.276280835E+01  1.306791957E+01  2.680673339E+01  6.060853341E+01  3.300000000E-01  0.00000E+00  9.000E+00
      -4     1     1     2     0   502  4.057397865E+02  5.871335658E+01 -1.507665706E+02  4.368121352E+02  1.500000000E+00  0.00000E+00  9.000E+00
      21     1     1     2   512   501 -1.309445812E+02  5.754372622E+00 -3.020118075E+02  3.292274716E+02  1.427329020E-05  0.00000E+00  9.000E+00
</event>
<event>
      8  10001  1.64594E-02  2.47107E+01 -1.00000E+00  1.63152E-01
       2    -1     0     0   501     0  0.000000000E+00  0.000000000E+00  2.190872083E+03  2.190872083E+03  0.000000000E+00  0.00000E+00  9.000E+00
       1    -1     0     0   502     0  0.000000000E+00  0.000000000E+00 -3.077091106E+01  3.077091106E+01  0.000000000E+00  0.00000E+00  9.000E+00
      23     2     1     2     0     0  7.414519631E+01  3.862996141E+01  1.019556609E+02  1.603121710E+02  9.118800000E+01  0.00000E+00  9.000E+00
     -13     1     3     3     0     0 -1.691106516E+01  1.802702780E+01  4.388425791E+01  5.036662706E+01  1.057000000E-01  0.00000E+00  9.000E+00
      13     1     3     3     0     0  9.105626147E+01  2.060293360E+01  5.807140297E+01  1.099455440E+02  1.057000000E-01  0.00000E+00  9.000E+00
       1     1     1     2   501     0 -7.238129249E+01 -2.268394138E+01  1.852548659E+03  1.854100929E+03  3.300000000E-01  0.00000E+00  9.000E+00
       2     1     1     2   511     0  2.486847787E+00 -1.246414008E+01  5.189154662E+01  5.342640461E+01  3.300000000E-01  0.00000E+00  9.000E+00
      21     1     1     2   502   511 -4.250751609E+00 -3.481879947E+00  1.537053057E+02  1.538034895E+02  3.814697266E-06  0.00000E+00  9.000E+00
</event>
<event>
      8  10001  1.20023E-02  3.59443E+02 -1.00000E+00  1.04740E-01
      -1    -1     0     0     0   501  0.000000000E+00  0.000000000E+00  1.551923263E+02  1.551923263E+02  0.000000000E+00  0.00000E+00  9.000E+00
       1    -1     0     0   502     0  0.000000000E+00  0.000000000E+00 -1.935067451E+03  1.935067451E+03  0.000000000E+00  0.00000E+00  9.000E+00
      23     2     1     2     0     0 -1.329825108E+02 -9.487894056E+01 -1.665110144E+03  1.675587480E+03  9.118800000E+01  0.00000E+00  9.000E+00
     -13     1     3     3     0     0 -1.397341501E+01 -6.207851602E+01 -5.586749861E+02  5.622870706E+02  1.057000000E-01  0.00000E+00  9.000E+00
      13     1     3     3     0     0 -1.190090958E+02 -3.280042454E+01 -1.106435157E+03  1.113300409E+03  1.057000000E-01  0.00000E+00  9.000E+00
      -2     1     1     2     0   501  1.106069904E+02  8.840898270E+01  4.207829600E+01  1.477184702E+02  3.300000000E-01  0.00000E+00  9.000E+00
       2     1     1     2   512     0  3.786564793E+01 -2.319391771E+01 -2.041965540E+02  2.089691525E+02  3.300000000E-01  0.00000E+00  9.000E+00
      21     1     1     2   502   512 -1.549012753E+01  2.966387557E+01  4.735327733E+01  5.798467417E+01  4.909339018E-06  0.00000E+00  9.000E+00
</event>
<event>
      8  10001  1.93377E-02  2.01094E+01 -1.00000E+00  1.70577E-01
       1    -1     0     0   501     0  0.000000000E+00  0.000000000E+00  1.512054389E+02  1.512054389E+02  0.000000000E+00  0.00000E+00  9.000E+00
      -2    -1     0     0     0   502  0.000000000E+00  0.000000000E+00 -1.308596787E+02  1.308596787E+02  0.000000000E+00  0.00000E+00  9.000E+00
      23     2     1     2     0     0 -1.308841963E+00  8.293690419E+01 -7.245406470E+01  1.429863140E+02  9.118800000E+01  0.00000E+00  9.000E+00
     -13     1     3     3     0     0 -9.458563117E+00  6.797264624E+01 -9.345212063E+01  1.159441895E+02  1.057000000E-01  0.00000E+00  9.000E+00
      13     1     3     3     0     0  8.149721154E+00  1.496425794E+01  2.099805593E+01  2.704212447E+01  1.057000000E-01  0.00000E+00  9.000E+00
       1     1     1     2   511     0  3.442570410E-01  1.989526337E+00  1.855258454E+01  1.866504811E+01  3.300000000E-01  0.00000E+00  9.000E+00
      -2     1     1     2     0   502  1.120581683E+01 -7.658517977E+01  7.417545423E+01  1.072052564E+02  3.300000000E-01  0.00000E+00  9.000E+00
      21     1     1     2   501   511 -1.024123191E+01 -8.341250754E+00  7.178618396E-02  1.320849910E+01  1.261521033E-07  0.00000E+00  9.000E+00
</event>
<event>
      8  10001  1.06330E-02  3.20840E+02 -1.00000E+00  1.06342E-01
       2    -1     0     0   501     0  0.000000000E+00  0.000000000E+00  2.153183299E+02  2.153183299E+02  0.000000000E+00  0.00000E+00  9.000E+00
       2    -1     0     0   502     0  0.000000000E+00  0.000000000E+00 -4.510038094E+02  4.510038094E+02  0.000000000E+00  0.00000E+00  9.000E+00
      23     2     1     2     0     0  5.766182717E+01  3.746780154E+01 -9.241019881E+01  1.469136435E+02  9.118800000E+01  0.00000E+00  9.000E+00
     -13     1     3     3     0     0 -2.186506649E+01 -7.875771686E-01 -4.476085926E+00  2.233266505E+01  1.057000000E-01  0.00000E+00  9.000E+00
      13     1     3     3     0     0  7.952689366E+01  3.825537870E+01 -8.793411289E+01  1.245809785E+02  1.057000000E-01  0.00000E+00  9.000E+00
       2     1     1     2   501     0 -1.278663700E+02 -2.926557351E+01  5.805786272E+01  1.434472262E+02  3.300000000E-01  0.00000E+00  9.000E+00
       2     1     1     2   511     0  1.181110806E+02  8.491022080E+01  3.944460923E+00  1.455185233E+02  3.300000000E-01  0.00000E+00  9.000E+00
      21     1     1     2   502   511 -4.790653771E+01 -9.311244882E+01 -2.052776043E+02  2.304427463E+02  4.672030912E-06  0.00000E+00  9.000E+00
</event>
<event>
      8  10001  1.06181E-02  4.30328E+02 -1.00000E+00  1.02301E-01
       3    -1     0     0   501     0  0.000000000E+00  0.000000000E+00  1.965403309E+03  1.965403309E+03  0.000000000E+00  0.00000E+00  9.000E+00
       2    -1     0     0   502     0  0.000000000E+00  0.000000000E+00 -3.033841165E+02  3.033841165E+02  0.000000000E+00  0.00000E+00  9.000E+00
      23     2     1     2     0     0  2.684840454E+02 -4.834159870E+02  1.011804043E+03  1.156649200E+03  9.118800000E+01  0.00000E+00  9.000E+00
     -13     1     3     3     0     0  2.570645596E+02 -3.993941106E+02  8.373738205E+02  9.627007686E+02  1.057000000E-01  0.00000E+00  9.000E+00
      13     1     3     3     0     0  1.141948581E+01 -8.402187642E+01  1.744302220E+02  1.939484310E+02  1.057000000E-01  0.00000E+00  9.000E+00
       4     1     1     2   512     0  4.715141412E+01  7.359876997E+00  3.887411593E+00  4.790392063E+01  1.500000000E+00  0.00000E+00  9.000E+00
       1     1     1     2   502     0 -1.967839000E+02  3.630953208E+02  7.598295210E+02  8.648139252E+02  3.300000000E-01  0.00000E+00  9.000E+00
      21     1     1     2   501   512 -1.188515595E+02  1.129607893E+02 -1.135017830E+02  1.994203797E+02  5.394796609E-06  0.00000E+00  9.000E+00
</event>
<event>
      8  10001  1.54703E-02  4.98784E+01 -1.00000E+00  1.42176E-01
      21    -1     0     0   511   501  0.000000000E+00  0.000000000E+00  8.783361495E+01  8.783361495E+01  0.000000000E+00  0.00000E+00  9.000E+00
       1    -1     0     0   502     0  0.000000000E+00  0.000000000E+00 -4.175595132E+02  4.175595132E+02  0.000000000E+00  0.00000E+00  9.000E+00
      23     2     1     2     0     0  9.225327197E+01 -6.441390565E+01 -2.174565993E+02  2.612708199E+02  9.118800000E+01  0.00000E+00  9.000E+00
     -13     1     3     3     0     0 -1.349760909E+01  8.796578312E+00 -2.732407998E+01  3.172036823E+01  1.057000000E-01  0.00000E+00  9.000E+00
      13     1     3     3     0     0  1.057508811E+02 -7.321048397E+01 -1.901325193E+02  2.295504517E+02  1.057000000E-01  0.00000E+00  9.000E+00
      -2     1     1     2     0   501 -2.182764284E+01  1.402894894E+01 -2.015410615E+01  3.285657156E+01  3.300000000E-01  0.00000E+00  9.000E+00
       2     1     1     2   502     0 -1.120242764E+02  7.790509244E+01 -8.531154540E+01  1.609248601E+02  3.300000000E-01  0.00000E+00  9.000E+00
       1     1     1     2   511     0  4.159864729E+01 -2.752013572E+01 -6.803647390E+00  5.034087647E+01  3.300000000E-01  0.00000E+00  9.000E+00
</event>
<event>
      8  10001  1.19192E-02  4.71990E+01 -1.00000E+00  1.43623E-01
       2    -1     0     0   501     0  0.000000000E+00  0.000000000E+00  3.305109894E+02  3.305109894E+02  0.000000000E+00  0.00000E+00  9.000E+00
       3    -1     0     0   502     0  0.000000000E+00  0.000000000E+00 -1.487577291E+02  1.487577291E+02  0.000000000E+00  0.00000E+00  9.000E+00
      23     2     1     2     0     0 -3.152827184E+01 -3.253654226E+00 -9.366093986E+01  1.345074020E+02  9.118800000E+01  0.00000E+00  9.000E+00
     -13     1     3     3     0     0 -2.309903922E+01 -9.188510867E-01  1.364593141E+01  2.684459940E+01  1.057000000E-01  0.00000E+00  9.000E+00
      13     1     3     3     0     0 -8.429232619E+00 -2.334803140E+00 -1.073068713E+02  1.076628026E+02  1.057000000E-01  0.00000E+00  9.000E+00
       1     1     1     2   511     0 -9.593293405E+00  1.867154109E+01  1.340818992E+01  2.491076438E+01  3.300000000E-01  0.00000E+00  9.000E+00
       4     1     1     2   502     0  5.152079616E+01 -3.431835325E+01  2.830318850E+02  2.897264912E+02  1.500000000E+00  0.00000E+00  9.000E+00
      21     1     1     2   501   511 -1.039923091E+01  1.890046638E+01 -2.102587478E+01  3.012406087E+01  2.050954167E-06  0.00000E+00  9.000E+00
</event>
<event>
      8  10001  3.76699E-02  3.75436E+01 -1.00000E+00  1.49956E-01
       2    -1     0     0   501     0  0.000000000E+00  0.000000000E+00  7.777104659E+02  7.777104659E+02  0.000000000E+00  0.00000E+00  9.000E+00
      -4    -1     0     0     0   502  0.000000000E+00  0.000000000E+00 -1.227719338E+01  1.227719338E+01  0.000000000E+00  0.00000E+00  9.000E+00
      23     2     1     2     0     0 -5.056056207E+00 -3.309919213E+01  2.069894672E+02  2.286504124E+02  9.118800000E+01  0.00000E+00  9.000E+00
     -13     1     3     3     0     0 -4.267211577E+01 -2.288219070E+01  6.288058354E+01  7.936298302E+01  1.057000000E-01  0.00000E+00  9.000E+00
      13     1     3     3     0     0  3.761605956E+01 -1.021700144E+01  1.441088836E+02  1.492874294E+02  1.057000000E-01  0.00000E+00  9.000E+00
       1     1     1     2   501     0 -4.181509970E+00  1.215732852E+01  2.192285888E+02  2.196054842E+02  3.300000000E-01  0.00000E+00  9.000E+00
      -3     1     1     2     0   511  2.058652822E+01  7.494411009E+00  1.357865367E+02  1.375434655E+02  5.000000000E-01  0.00000E+00  9.000E+00
      21     1     1     2   511   502 -1.134896204E+01  1.344745260E+01  2.034286798E+02  2.041882972E+02  3.814697266E-06  0.00000E+00  9.000E+00
</event>
<event>
      8  10001  2.60903E-02  1.74235E+01 -1.00000E+00  1.76170E-01
       3    -1     0     0   501     0  0.000000000E+00  0.000000000E+00  9.974181273E+01  9.974181273E+01  0.000000000E+00  0.00000E+00  9.000E+00
      -1    -1     0     0     0   502  0.000000000E+00  0.000000000E+00 -1.424541449E+02  1.424541449E+02  0.000000000E+00  0.00000E+00  9.000E+00
      23     2     1     2     0     0  3.960353202E+01 -2.219900363E+01 -1.136032980E+02  1.525850457E+02  9.118800000E+01  0.00000E+00  9.000E+00
     -13     1     3     3     0     0  9.259588625E+00  3.433781015E+01 -5.610165968E+01  6.642463835E+01  1.057000000E-01  0.00000E+00  9.000E+00
      13     1     3     3     0     0  3.034394340E+01 -5.653681379E+01 -5.750163834E+01  8.616040737E+01  1.057000000E-01  0.00000E+00  9.000E+00
       4     1     1     2   501     0 -1.494316117E+01 -4.089410797E-01  1.113780903E+01  1.870203435E+01  1.500000000E+00  0.00000E+00  9.000E+00
      -2     1     1     2     0   512 -1.287330543E+01  2.073609352E+01  2.890643570E+01  3.783382736E+01  3.300000000E-01  0.00000E+00  9.000E+00
      21     1     1     2   512   502 -1.178706542E+01  1.871851193E+00  3.084672115E+01  3.307505017E+01  0.000000000E+00  0.00000E+00  9.000E+00
</event>
<event>
      8  10001  3.01757E-02  3.98182E+01 -1.00000E+00  1.48274E-01
      -4    -1     0     0     0   501  0.000000000E+00  0.000000000E+00  2.630922726E+02  2.630922726E+02  0.000000000E+00  0.00000E+00  9.000E+00
       2    -1     0     0   502     0  0.000000000E+00  0.000000000E+00 -3.606836645E+01  3.606836645E+01  0.000000000E+00  0.00000E+00  9.000E+00
      23     2     1     2     0     0 -6.897790621E+00  1.297171218E+01  1.877054099E+02  2.091994672E+02  9.118800000E+01  0.00000E+00  9.000E+00
     -13     1     3     3     0     0  9.458411357E+00 -3.331065687E+01  3.688700419E+01  5.059371164E+01  1.057000000E-01  0.00000E+00  9.000E+00
      13     1     3     3     0     0 -1.635620198E+01  4.628236905E+01  1.508184057E+02  1.586057556E+02  1.057000000E-01  0.00000E+00  9.000E+00
      -4     1     1     2     0   511  1.826632726E+01 -5.436914880E+00  1.247927842E+00  1.915792471E+01  1.500000000E+00  0.00000E+00  9.000E+00
       2     1     1     2   502     0 -4.311879467E+00 -7.572444930E+00 -1.495417509E+01  1.731099302E+01  3.300000000E-01  0.00000E+00  9.000E+00
      21     1     1     2   511   501 -7.056657175E+00  3.764762756E-02  5.302474350E+01  5.349225412E+01  6.743495762E-07  0.00000E+00  9.000E+00
</event>
<event>
      8  10001  1.07286E-02  2.74103E+02 -1.00000E+00  1.08645E-01
      -4    -1     0     0     0   501  0.000000000E+00  0.000000000E+00  7.407387183E+01  7.407387183E+01  0.000000000E+00  0.00000E+00  9.000E+00
       2    -1     0     0   502     0  0.000000000E+00  0.000000000E+00 -6.731021823E+02  6.731021823E+02  0.000000000E+00  0.00000E+00  9.000E+00
      23     2     1     2     0     0 -2.696241693E+01 -7.527890711E+00 -2.006079067E+02  2.221315481E+02  9.118800000E+01  0.00000E+00  9.000E+00
     -13     1     3     3     0     0 -4.091349078E+01  2.401446013E+01 -1.683520248E+02  1.749086145E+02  1.057000000E-01  0.00000E+00  9.000E+00
      13     1     3     3     0     0  1.395107385E+01 -3.154235084E+01 -3.225588194E+01  4.722293352E+01  1.057000000E-01  0.00000E+00  9.000E+00
      -3     1     1     2     0   501  8.537106888E+01 -2.493461221E+01 -1.462699745E+02  1.711873527E+02  5.000000000E-01  0.00000E+00  9.000E+00
       1     1     1     2   511     0 -6.344381633E+01  7.722099278E+00 -2.962368911E+02  3.030530534E+02  3.300000000E-01  0.00000E+00  9.000E+00
      21     1     1     2   502   511  5.035164387E+00  2.474040364E+01  4.408646183E+01  5.080409993E+01  2.900487199E-06  0.00000E+00  9.000E+00
</event>
<event>
      8  10001  1.11531E-02  5.22182E+02 -1.00000E+00  9.98049E-02
       1    -1     0     0   501     0  0.000000000E+00  0.000000000E+00  3.020805194E+02  3.020805194E+02  0.000000000E+00  0.00000E+00  9.000E+00
       2    -1     0     0   502     0  0.000000000E+00  0.000000000E+00 -7.508137087E+02  7.508137087E+02  0.000000000E+00  0.00000E+00  9.000E+00
      23     2     1     2     0     0  1.643246651E+02 -1.965705370E+02  8.112617140E+01  2.837944302E+02  9.118800000E+01  0.00000E+00  9.000E+00
     -13     1     3     3     0     0  1.213906020E+02 -1.425201671E+02  1.435947775E+01  1.877601716E+02  1.057000000E-01  0.00000E+00  9.000E+00
      13     1     3     3     0     0  4.293406309E+01 -5.405036990E+01  6.676669365E+01  9.603425854E+01  1.057000000E-01  0.00000E+00  9.000E+00
       2     1     1     2   512     0  2.333986555E+00  9.722623655E+01  7.980626826E+01  1.258075432E+02  3.300000000E-01  0.00000E+00  9.000E+00
       1     1     1     2   502     0 -6.734597341E+01  4.463417901E+00 -1.820366960E+02  1.941465163E+02  3.300000000E-01  0.00000E+00  9.000E+00
      21     1     1     2   501   512 -9.931267825E+01  9.488088250E+01 -4.276289331E+02  4.491457384E+02  7.629394531E-06  0.00000E+00  9.000E+00
</event>
<event>
      8  10001  1.06038E-02  3.29217E+02 -1.00000E+00  1.05974E-01
      -1    -1     0     0     0   501  0.000000000E+00  0.000000000E+00  4.935162449E+02  4.935162449E+02  0.000000000E+00  0.00000E+00  9.000E+00
       3    -1     0     0   502     0  0.000000000E+00  0.000000000E+00 -2.742471448E+02  2.742471448E+02  0.000000000E+00  0.00000E+00  9.000E+00
      23     2     1     2     0     0 -9.171592937E+01 -1.073619119E+01  2.603778016E+02  2.909277031E+02  9.118800000E+01  0.00000E+00  9.000E+00
     -13     1     3     3     0     0 -3.988350236E+01  2.551343680E+01  1.921276625E+02  1.978754130E+02  1.057000000E-01  0.00000E+00  9.000E+00
      13     1     3     3     0     0 -5.183242701E+01 -3.624962799E+01  6.825013913E+01  9.305229005E+01  1.057000000E-01  0.00000E+00  9.000E+00
      -1     1     1     2     0   511 -1.036651495E+02  4.781579756E+01  3.092589750E+01  1.182765139E+02  3.300000000E-01  0.00000E+00  9.000E+00
       3     1     1     2   502     0  1.507166552E+02  1.164287774E+02 -2.619782338E+01  1.922439760E+02  5.000000000E-01  0.00000E+00  9.000E+00
      21     1     1     2   511   501  4.466442363E+01 -1.535083837E+02 -4.583677568E+01  1.663151966E+02  3.234066955E-06  0.00000E+00  9.000E+00
</event>
<event>
      8  10001  1.15550E-02  5.86684E+01 -1.00000E+00  1.38092E-01
       1    -1     0     0   501     0  0.000000000E+00  0.000000000E+00  2.918619105E+01  2.918619105E+01  0.000000000E+00  0.00000E+00  9.000E+00
       2    -1     0     0   502     0  0.000000000E+00  0.000000000E+00 -1.247363382E+03  1.247363382E+03  0.000000000E+00  0.00000E+00  9.000E+00
      23     2     1     2     0     0  1.381346900E+02  1.075226030E+01 -6.903062307E+02  7.099540459E+02  9.118800000E+01  0.00000E+00  9.000E+00
     -13     1     3     3     0     0  8.560805154E+01  1.669443772E+01 -2.195735888E+02  2.362625971E+02  1.057000000E-01  0.00000E+00  9.000E+00
      13     1     3     3     0     0  5.252663850E+01 -5.942177422E+00 -4.707326420E+02  4.736914487E+02  1.057000000E-01  0.00000E+00  9.000E+00
       1     1     1     2   511     0 -2.347463404E+01 -1.114698122E+01 -7.458932206E+01  7.898727428E+01  3.300000000E-01  0.00000E+00  9.000E+00
       2     1     1     2   502     0 -1.111625392E+02  1.935554636E+01 -1.722578499E+02  2.059238283E+02  3.300000000E-01  0.00000E+00  9.000E+00
      21     1     1     2   501   511 -3.497516797E+00 -1.896082545E+01 -2.810237885E+02  2.816844249E+02  3.814697266E-06  0.00000E+00  9.000E+00
</event>
<event>
      8  10001  1.05699E-02  3.58289E+02 -1.00000E+00  1.04785E-01
      -2    -1     0     0     0   501  0.000000000E+00  0.000000000E+00  6.480722209E+02  6.480722209E+02  0.000000000E+00  0.00000E+00  9.000E+00
      -3    -1     0     0     0   502  0.000000000E+00  0.000000000E+00 -3.584057796E+02  3.584057796E+02  0.000000000E+00  0.00000E+00  9.000E+00
      23     2     1     2     0     0 -2.862420723E+02  4.077011174E+01  1.005727020E+02  3.194164143E+02  9.118800000E+01  0.00000E+00  9.000E+00
     -13     1     3     3     0     0 -2.514865662E+02  5.743355081E+01  1.088622395E+02  2.799912572E+02  1.057000000E-01  0.00000E+00  9.000E+00
      13     1     3     3     0     0 -3.475550609E+01 -1.666343908E+01 -8.289537498E+00  3.942515707E+01  1.057000000E-01  0.00000E+00  9.000E+00
      -1     1     1     2     0   511  7.433347832E+01  1.538604646E+02  1.353940734E+02  2.180141569E+02  3.300000000E-01  0.00000E+00  9.000E+00
      -4     1     1     2     0   502  2.556394676E+01 -1.966896278E+02  1.597032934E+02  2.546521490E+02  1.500000000E+00  0.00000E+00  9.000E+00
      21     1     1     2   511   501  1.863446472E+02  2.059051456E+00 -1.060036275E+02  2.143952805E+02  5.560829062E-06  0.00000E+00  9.000E+00
</event>
<event>
      8  10001  1.09195E-02  9.47107E+01 -1.00000E+00  1.27330E-01
       2    -1     0     0   501     0  0.000000000E+00  0.000000000E+00  1.124312242E+03  1.124312242E+03  0.000000000E+00  0.00000E+00  9.000E+00
       3    -1     0     0   502     0  0.000000000E+00  0.000000000E+00 -2.811426093E+02  2.811426093E+02  0.000000000E+00  0.00000E+00  9.000E+00
      23     2     1     2     0     0 -7.945461642E+00  1.293292339E+01 -2.171674989E+02  2.360240767E+02  9.118800000E+01  0.00000E+00  9.000E+00
     -13     1     3     3     0     0 -7.955218923E+00  2.285144618E+01 -6.407518786E+00  2.503081242E+01  1.057000000E-01  0.00000E+00  9.000E+00
      13     1     3     3     0     0  9.757281161E-03 -9.918522789E+00 -2.107599801E+02  2.109932643E+02  1.057000000E-01  0.00000E+00  9.000E+00
       2     1     1     2   501     0  8.740574230E+01 -3.920798937E+01  1.051361541E+03  1.055716927E+03  3.300000000E-01  0.00000E+00  9.000E+00
       3     1     1     2   511     0 -5.128273519E+01  1.481869250E+01  4.265516495E+01  6.833173255E+01  5.000000000E-01  0.00000E+00  9.000E+00
      21     1     1     2   502   511 -2.817754547E+01  1.145637348E+01 -3.367957510E+01  4.538211477E+01  1.261592536E-06  0.00000E+00  9.000E+00
</event>
<event>
      8  10001  1.09029E-02  4.89193E+02 -1.00000E+00  1.00633E-01
       2    -1     0     0   501     0  0.000000000E+00  0.000000000E+00  3.071313389E+03  3.071313389E+03  0.000000000E+00  0.00000E+00  9.000E+00
       1    -1     0     0   502     0  0.000000000E+00  0.000000000E+00 -4.866472048E+01  4.866472048E+01  0.000000000E+00  0.00000E+00  9.000E+00
      23     2     1     2     0     0  7.277471093E+01 -2.445987611E+01  1.625844490E+02  2.016020796E+02  9.118800000E+01  0.00000E+00  9.000E+00
     -13     1     3     3     0     0  7.688165475E+01 -4.762645424E+01  1.004589143E+02  1.351705316E+02  1.057000000E-01  0.00000E+00  9.000E+00
      13     1     3     3     0     0 -4.106943816E+00  2.316657813E+01  6.212553478E+01  6.643154803E+01  1.057000000E-01  0.00000E+00  9.000E+00
       2     1     1     2   501     0 -7.584775086E+01  9.725256798E+01  1.569432852E+02  1.996052278E+02  3.300000000E-01  0.00000E+00  9.000E+00
       1     1     1     2   512     0  1.005491109E+02  3.229873090E+00  4.042898302E+02  4.166184484E+02  3.300000000E-01  0.00000E+00  9.000E+00
      21     1     1     2   502   512 -9.747607097E+01 -7.602256496E+01  2.298831104E+03  2.302152354E+03  0.000000000E+00  0.00000E+00  9.000E+00
</event>
<event>
      8  10001  1.06744E-02  4.76713E+02 -1.00000E+00  1.00965E-01
      -3    -1     0     0     0   501  0.000000000E+00  0.000000000E+00  8.709132874E+02  8.709132874E+02  0.000000000E+00  0.00000E+00  9.000E+00
      -2    -1     0     0     0   502  0.000000000E+00  0.000000000E+00 -2.240797308E+02  2.240797308E+02  0.000000000E+00  0.00000E+00  9.000E+00
      23     2     1     2     0     0 -5.016029060E+01 -1.349601753E+01 -1.437170244E+02  1.779551396E+02  9.118800000E+01  0.00000E+00  9.000E+00
     -13     1     3     3     0     0 -1.470949204E+00 -4.623847855E+01 -6.225597104E+01  7.756273392E+01  1.057000000E-01  0.00000E+00  9.000E+00
      13     1     3     3     0     0 -4.868934140E+01  3.274246102E+01 -8.146105340E+01  1.003924056E+02  1.057000000E-01  0.00000E+00  9.000E+00
      -4     1     1     2     0   501  1.268204760E+00 -1.362188053E+02  1.251865928E+02  1.850164973E+02  1.500000000E+00  0.00000E+00  9.000E+00
      -1     1     1     2     0   511  1.127446499E+01  9.262820529E+01  3.769252031E+01  1.006376319E+02  3.300000000E-01  0.00000E+00  9.000E+00
      21     1     1     2   511   502  3.761762085E+01  5.708661755E+01  6.276714679E+02  6.313837493E+02  0.000000000E+00  0.00000E+00  9.000E+00
</event>
<event>
      8  10001  1.07576E-02  2.21941E+02 -1.00000E+00  1.11898E-01
      -1    -1     0     0     0   501  0.000000000E+00  0.000000000E+00  4.308471712E+02  4.308471712E+02  0.000000000E+00  0.00000E+00  9.000E+00
      -2    -1     0     0     0   502  0.000000000E+00  0.000000000E+00 -3.218850803E+02  3.218850803E+02  0.000000000E+00  0.00000E+00  9.000E+00
      23     2     1     2     0     0 -1.231867609E+02 -1.258611548E+02 -1.284956711E+02  2.363099599E+02  9.118800000E+01  0.00000E+00  9.000E+00
     -13     1     3     3     0     0 -1.170719936E+02 -8.533245099E+01 -1.309036301E+02  1.952517616E+02  1.057000000E-01  0.00000E+00  9.000E+00
      13     1     3     3     0     0 -6.114767307E+00 -4.052870383E+01  2.407959005E+00  4.105819836E+01  1.057000000E-01  0.00000E+00  9.000E+00
      -2     1     1     2     0   512  7.805673651E+01  6.621153150E+01  7.062104508E+01  1.243553856E+02  3.300000000E-01  0.00000E+00  9.000E+00
      -1     1     1     2     0   502  4.898064591E+01  1.163645806E+02  2.565079943E+02  2.858955742E+02  3.300000000E-01  0.00000E+00  9.000E+00
      21     1     1     2   512   501 -3.850621556E+00 -5.671495733E+01 -8.967127748E+01  1.061713317E+02  0.000000000E+00  0.00000E+00  9.000E+00
</event>
<event>
      8  10001  1.47241E-01  5.05511E+01 -1.00000E+00  1.41830E-01
       2    -1     0     0   501     0  0.000000000E+00  0.000000000E+00  6.126171247E+02  6.126171247E+02  0.000000000E+00  0.00000E+00  9.000E+00
      -2    -1     0     0     0   502  0.000000000E+00  0.000000000E+00 -2.604825380E+01  2.604825380E+01  0.000000000E+00  0.00000E+00  9.000E+00
      23     2     1     2     0     0 -6.762663792E+00  7.362153766E+00  8.020910955E+01  1.218551908E+02  9.118800000E+01  0.00000E+00  9.000E+00
     -13     1     3     3     0     0 -3.816973624E+01 -2.529963343E+01  4.743504826E+01  6.593250482E+01  1.057000000E-01  0.00000E+00  9.000E+00
      13     1     3     3     0     0  3.140707245E+01  3.266178720E+01  3.277406129E+01  5.592268599E+01  1.057000000E-01  0.00000E+00  9.000E+00
       2     1     1     2   511     0 -2.548757643E+00 -1.320608459E+00  3.493761162E+01  3.505689345E+01  3.300000000E-01  0.00000E+00  9.000E+00
      -2     1     1     2     0   502  3.209255296E+00  3.892351577E+00  4.699786616E+02  4.700058521E+02  3.300000000E-01  0.00000E+00  9.000E+00
      21     1     1     2   501   511  6.102166138E+00 -9.933896884E+00  1.443488093E+00  1.174744214E+01  1.247076747E-06  0.00000E+00  9.000E+00
</event>
<event>
      8  10001  1.08520E-02  1.59038E+02 -1.00000E+00  1.17460E-01
       2    -1     0     0   501     0  0.000000000E+00  0.000000000E+00  6.795659833E+02  6.795659833E+02  0.000000000E+00  0.00000E+00  9.000E+00
       4    -1     0     0   502     0  0.000000000E+00  0.000000000E+00 -3.793014096E+01  3.793014096E+01  0.000000000E+00  0.00000E+00  9.000E+00
      23     2     1     2     0     0 -3.929967731E+01 -3.596114717E+00  2.062435650E+02  2.289302429E+02  9.118800000E+01  0.00000E+00  9.000E+00
     -13     1     3     3     0     0 -4.817554494E+01  1.446020610E+01  2.022586926E+02  2.084192184E+02  1.057000000E-01  0.00000E+00  9.000E+00
      13     1     3     3     0     0  8.875867622E+00 -1.805632082E+01  3.984872424E+00  2.051102456E+01  1.057000000E-01  0.00000E+00  9.000E+00
       2     1     1     2   511     0  1.051156576E+00  2.534221689E+00  2.354689068E+02  2.354851209E+02  3.300000000E-01  0.00000E+00  9.000E+00
       4     1     1     2   502     0  7.224254877E+01  3.940033471E+01  1.803299285E+02  1.982233723E+02  1.500000000E+00  0.00000E+00  9.000E+00
      21     1     1     2   501   511 -3.399402804E+01 -3.833844168E+01  1.959344202E+01  5.485738805E+01  5.363093319E-06  0.00000E+00  9.000E+00
</event>
<event>
      8  10001  1.51774E-02  7.04579E+02 -1.00000E+00  9.61752E-02
       3    -1     0     0   501     0  0.000000000E+00  0.000000000E+00  5.501087900E+02  5.501087900E+02  0.000000000E+00  0.00000E+00  9.000E+00
       2    -1     0     0   502     0  0.000000000E+00  0.000000000E+00 -4.892115764E+02  4.892115764E+02  0.000000000E+00  0.00000E+00  9.000E+00
      23     2     1     2     0     0 -1.371731021E+02  3.594867311E+00  1.383814784E+02  2.151605631E+02  9.118800000E+01  0.00000E+00  9.000E+00
     -13     1     3     3     0     0 -8.468541698E+01 -3.448664646E+01  4.617897962E+01  1.024375808E+02  1.057000000E-01  0.00000E+00  9.000E+00
      13     1     3     3     0     0 -5.248768511E+01  3.808151377E+01  9.220249882E+01  1.127229823E+02  1.057000000E-01  0.00000E+00  9.000E+00
       3     1     1     2   511     0 -1.425907452E+01  6.760271810E+00 -3.825037625E+02  3.828294670E+02  5.000000000E-01  0.00000E+00  9.000E+00
       2     1     1     2   502     0  3.333781242E+01 -1.674459115E+01 -5.269891910E+01  6.456838270E+01  3.300000000E-01  0.00000E+00  9.000E+00
      21     1     1     2   501   511  1.180943642E+02  6.389452033E+00  3.577184168E+02  3.767619536E+02  6.607249480E-06  0.00000E+00  9.000E+00
</event>
<event>
      8  10001  1.06476E-02  1.36123E+03 -1.00000E+00  8.90683E-02
       1    -1     0     0   501     0  0.000000000E+00  0.000000000E+00  7.056209856E+02  7.056209856E+02  0.000000000E+00  0.00000E+00  9.000E+00
       2    -1     0     0   502     0  0.000000000E+00  0.000000000E+00 -1.373153337E+03  1.373153337E+03  0.000000000E+00  0.00000E+00  9.000E+00
      23     2     1     2     0     0  1.075163158E+02 -8.405620402E+01  6.535259113E+02  6.738223591E+02  9.118800000E+01  0.00000E+00  9.000E+00
     -13     1     3     3     0     0 -8.609235924E+00 -1.430118385E+01  2.036579785E+01  2.633286345E+01  1.057000000E-01  0.00000E+00  9.000E+00
      13     1     3     3     0     0  1.161255517E+02 -6.975502017E+01  6.331601134E+02  6.474894957E+02  1.057000000E-01  0.00000E+00  9.000E+00
       2     1     1     2   511     0  7.035153975E+00  3.915130412E-01 -1.880928723E+00  7.300237446E+00  3.300000000E-01  0.00000E+00  9.000E+00
       1     1     1     2   502     0  8.556564048E+01  1.302707125E+02 -1.715640176E+02  2.317892543E+02  3.300000000E-01  0.00000E+00  9.000E+00
      21     1     1     2   501   511 -2.001171103E+02 -4.660602157E+01 -1.147613317E+03  1.165862472E+03  1.525878906E-05  0.00000E+00  9.000E+00
</event>
<event>
      8  10001  1.07549E-02  3.73560E+02 -1.00000E+00  1.04208E-01
       2    -1     0     0   501     0  0.000000000E+00  0.000000000E+00  2.027961679E+03  2.027961679E+03  0.000000000E+00  0.00000E+00  9.000E+00
      -4    -1     0     0     0   502  0.000000000E+00  0.000000000E+00 -5.142267860E+01  5.142267860E+01  0.000000000E+00  0.00000E+00  9.000E+00
      23     2     1     2     0     0  5.843816426E+00  3.402177101E+01  5.033739845E+01  1.097302881E+02  9.118800000E+01  0.00000E+00  9.000E+00
     -13     1     3     3     0     0  7.313191935E+00  6.553633357E+01  3.327227582E+01  7.386169037E+01  1.057000000E-01  0.00000E+00  9.000E+00
      13     1     3     3     0     0 -1.469375509E+00 -3.151456256E+01  1.706512263E+01  3.586859770E+01  1.057000000E-01  0.00000E+00  9.000E+00
       1     1     1     2   501     0 -1.079038582E+00 -8.454653934E+01  7.653528568E+02  7.700093414E+02  3.300000000E-01  0.00000E+00  9.000E+00
      -3     1     1     2     0   511 -4.458179568E+01  1.236786621E+00  8.314498347E+00  4.537011163E+01  5.000000000E-01  0.00000E+00  9.000E+00
      21     1     1     2   511   502  3.981701783E+01  4.928798171E+01  1.152534247E+03  1.154274616E+03  1.525878906E-05  0.00000E+00  9.000E+00
</event>
<event>
      8  10001  1.30058E-02  7.10183E+01 -1.00000E+00  1.33583E-01
      -4    -1     0     0     0   501  0.000000000E+00  0.000000000E+00  1.729347373E+02  1.729347373E+02  0.000000000E+00  0.00000E+00  9.000E+00
      -4    -1     0     0     0   502  0.000000000E+00  0.000000000E+00 -4.173542309E+02  4.173542309E+02  0.000000000E+00  0.00000E+00  9.000E+00
      23     2     1     2     0     0  1.599270406E+02 -2.073570430E+01 -3.142737475E+02  3.648148400E+02  9.118800000E+01  0.00000E+00  9.000E+00
     -13     1     3     3     0     0  1.373294090E+02  6.976912561E+00 -1.838876362E+02  2.296142805E+02  1.057000000E-01  0.00000E+00  9.000E+00
      13     1     3     3     0     0  2.259763157E+01 -2.771261686E+01 -1.303861113E+02  1.352005595E+02  1.057000000E-01  0.00000E+00  9.000E+00
      -4     1     1     2     0   501 -1.494906698E+02 -4.381432520E+00  2.282358439E+01  1.512938311E+02  1.500000000E+00  0.00000E+00  9.000E+00
      -4     1     1     2     0   512 -1.463769544E+01  2.607991561E+01  3.173922599E+00  3.011225516E+01  1.500000000E+00  0.00000E+00  9.000E+00
      21     1     1     2   512   502  4.201324692E+00 -9.627787871E-01  4.385674691E+01  4.406804195E+01  4.768371582E-07  0.00000E+00  9.000E+00
</event>
<event>
      8  10001  2.32858E-02  9.58725E+01 -1.00000E+00  1.27078E-01
       2    -1     0     0   501     0  0.000000000E+00  0.000000000E+00  3.856603730E+03  3.856603730E+03  0.000000000E+00  0.00000E+00  9.000E+00
      -2    -1     0     0     0   502  0.000000000E+00  0.000000000E+00 -3.111865995E+01  3.111865995E+01  0.000000000E+00  0.00000E+00  9.000E+00
      23     2     1     2     0     0  2.956074778E+01  4.365433205E+01  6.001169337E+01  1.212278565E+02  9.118800000E+01  0.00000E+00  9.000E+00
     -13     1     3     3     0     0  2.197703788E+00  6.207313906E+00 -2.420495440E+01  2.508488863E+01  1.057000000E-01  0.00000E+00  9.000E+00
      13     1     3     3     0     0  2.736304400E+01  3.744701814E+01  8.421664777E+01  9.614296791E+01  1.057000000E-01  0.00000E+00  9.000E+00
       2     1     1     2   501     0  8.513691711E-01 -1.571400540E+01  1.059700906E+03  1.059817802E+03  3.300000000E-01  0.00000E+00  9.000E+00
      -2     1     1     2     0   511 -2.496027226E+01 -2.339597011E+01  6.556798793E+02  6.565718541E+02  3.300000000E-01  0.00000E+00  9.000E+00
      21     1     1     2   511   502 -5.451844695E+00 -4.544356542E+00  2.050092591E+03  2.050104877E+03  0.000000000E+00  0.00000E+00  9.000E+00
</event>
<event>
      8  10001  1.11218E-02  1.44447E+02 -1.00000E+00  1.19173E-01
       1    -1     0     0   501     0  0.000000000E+00  0.000000000E+00  2.242028014E+02  2.242028014E+02  0.000000000E+00  0.00000E+00  9.000E+00
       2    -1     0     0   502     0  0.000000000E+00  0.000000000E+00 -2.638221465E+02  2.638221465E+02  0.000000000E+00  0.00000E+00  9.000E+00
      23     2     1     2     0     0 -1.488325246E+01 -1.149940844E+02 -5.116862974E+01  1.561365770E+02  9.118800000E+01  0.00000E+00  9.000E+00
     -13     1     3     3     0     0  3.747791730E+01 -4.795775259E+01 -3.269829286E+01  6.909218370E+01  1.057000000E-01  0.00000E+00  9.000E+00
      13     1     3     3     0     0 -5.236116976E+01 -6.703633184E+01 -1.847033688E+01  8.704439329E+01  1.057000000E-01  0.00000E+00  9.000E+00
       2     1     1     2   501     0  1.627932694E+01  1.569595540E+02 -6.516096139E+01  1.707260316E+02  3.300000000E-01  0.00000E+00  9.000E+00
       1     1     1     2   512     0  1.644558993E+00 -7.806863988E+01  1.979274524E+00  7.811173750E+01  3.300000000E-01  0.00000E+00  9.000E+00
      21     1     1     2   502   512 -3.040633470E+00  3.610317029E+01  7.473097146E+01  8.305060176E+01  0.000000000E+00  0.00000E+00  9.000E+00
</event>
<event>
      8  10001  1.18803E-02  1.60515E+02 -1.00000E+00  1.17298E-01
       1    -1     0     0   501     0  0.000000000E+00  0.000000000E+00  4.225396764E+02  4.225396764E+02  0.000000000E+00  0.00000E+00  9.000E+00
       3    -1     0     0   502     0  0.000000000E+00  0.000000000E+00 -6.754132867E+01  6.754132867E+01  0.000000000E+00  0.00000E+00  9.000E+00
      23     2     1     2     0     0  3.844775940E+01 -9.402817342E+01  1.899217768E+02  2.338911290E+02  9.118800000E+01  0.00000E+00  9.000E+00
     -13     1     3     3     0     0  4.704595790E+01 -9.766929648E+01  1.137008039E+02  1.571002788E+02  1.057000000E-01  0.00000E+00  9.000E+00
      13     1     3     3     0     0 -8.598198502E+00  3.641123057E+00  7.622097289E+01  7.679085021E+01  1.057000000E-01  0.00000E+00  9.000E+00
       1     1     1     2   501     0  1.902822867E+00  5.177528916E+01  1.458570937E+01  5.382520897E+01  3.300000000E-01  0.00000E+00  9.000E+00
       3     1     1     2   511     0  1.035066421E+01 -8.798101173E-01 -1.822961047E+01  2.098759189E+01  5.000000000E-01  0.00000E+00  9.000E+00
      21     1     1     2   502   511 -5.070124648E+01  4.313269437E+01  1.687204721E+02  1.813770752E+02  1.907348633E-06  0.00000E+00  9.000E+00
</event>
<event>
      8  10001  1.25907E-02  2.89999E+02 -1.00000E+00  1.07809E-01
       2    -1     0     0   501     0  0.000000000E+00  0.000000000E+00  2.150848600E+03  2.150848600E+03  0.000000000E+00  0.00000E+00  9.000E+00
       1    -1     0     0   502     0  0.000000000E+00  0.000000000E+00 -9.817968184E+02  9.817968184E+02  0.000000000E+00  0.00000E+00  9.000E+00
      23     2     1     2     0     0  5.883342420E+01 -8.813699286E+01 -9.595410124E+02  9.696719586E+02  9.118800000E+01  0.00000E+00  9.000E+00
     -13     1     3     3     0     0  5.779934732E+01 -2.667109632E+01 -7.026606229E+02  7.055381450E+02  1.057000000E-01  0.00000E+00  9.000E+00
      13     1     3     3     0     0  1.034076877E+00 -6.146589653E+01 -2.568803896E+02  2.641338136E+02  1.057000000E-01  0.00000E+00  9.000E+00
       1     1     1     2   501     0 -3.481410843E+01  9.752774936E+01  1.927983846E+03  1.930762933E+03  3.300000000E-01  0.00000E+00  9.000E+00
       2     1     1     2   512     0 -3.950443656E+00  3.571393770E+00 -1.466987444E+01  1.561009207E+01  3.300000000E-01  0.00000E+00  9.000E+00
      21     1     1     2   502   512 -2.006887211E+01 -1.296215028E+01  2.152788224E+02  2.166004347E+02  6.607249480E-06  0.00000E+00  9.000E+00
</event>
<event>
      8  10001  1.06180E-02  5.93272E+02 -1.00000E+00  9.82250E-02
       4    -1     0     0   501     0  0.000000000E+00  0.000000000E+00  7.852026137E+01  7.852026137E+01  0.000000000E+00  0.00000E+00  9.000E+00
       1    -1     0     0   502     0  0.000000000E+00  0.000000000E+00 -3.880722367E+03  3.880722367E+03  0.000000000E+00  0.00000E+00  9.000E+00
      23     2     1     2     0     0 -2.708864433E+01  4.371618099E+02 -2.226973191E+03  2.271468487E+03  9.118800000E+01  0.00000E+00  9.000E+00
     -13     1     3     3     0     0 -3.991484517E+01  4.195486997E+02 -2.029461695E+03  2.072758811E+03  1.057000000E-01  0.00000E+00  9.000E+00
      13     1     3     3     0     0  1.282620083E+01  1.761311015E+01 -1.975114959E+02  1.987096758E+02  1.057000000E-01  0.00000E+00  9.000E+00
       3     1     1     2   511     0 -1.594909483E+01  2.370745387E+01 -1.211158748E+01  3.103800164E+01  5.000000000E-01  0.00000E+00  9.000E+00
       2     1     1     2   502     0 -7.404607981E+01 -1.440065485E+02 -2.286756010E+02  2.802023329E+02  3.300000000E-01  0.00000E+00  9.000E+00
      21     1     1     2   501   511  1.170838190E+02 -3.168627152E+02 -1.334441726E+03  1.376533807E+03  5.060767808E-05  0.00000E+00  9.000E+00
</event>
<event>
      8  10001  2.90478E-02  3.92455E+01 -1.00000E+00  1.48684E-01
       2    -1     0     0   501     0  0.000000000E+00  0.000000000E+00  3.207417888E+02  3.207417888E+02  0.000000000E+00  0.00000E+00  9.000E+00
       2    -1     0     0   502     0  0.000000000E+00  0.000000000E+00 -4.348775388E+01  4.348775388E+01  0.000000000E+00  0.00000E+00  9.000E+00
      23     2     1     2     0     0 -1.476154649E+00  1.049761473E+01  3.552197851E+01  9.843495949E+01  9.118800000E+01  0.00000E+00  9.000E+00
     -13     1     3     3     0     0  1.353020547E+01  2.957430777E+01 -1.976307603E+01  3.805649073E+01  1.057000000E-01  0.00000E+00  9.000E+00
      13     1     3     3     0     0 -1.500636012E+01 -1.907669304E+01  5.528505454E+01  6.037846876E+01  1.057000000E-01  0.00000E+00  9.000E+00
       2     1     1     2   501     0 -1.036717721E+01 -1.358066754E+01  2.297689210E+02  2.304035131E+02  3.300000000E-01  0.00000E+00  9.000E+00
       2     1     1     2   511     0  8.712775242E+00  1.288176440E+01  1.773957603E+01  2.359351106E+01  3.300000000E-01  0.00000E+00  9.000E+00
      21     1     1     2   502   511  3.130556614E+00 -9.798711589E+00 -5.776440595E+00  1.179755905E+01  1.198038533E-06  0.00000E+00  9.000E+00
</event>
<event>
      8  10001  1.05720E-01  4.85749E+01 -1.00000E+00  1.42866E-01
       2    -1     0     0   501     0  0.000000000E+00  0.000000000E+00  6.420910681E+02  6.420910681E+02  0.000000000E+00  0.00000E+00  9.000E+00
      -2    -1     0     0     0   502  0.000000000E+00  0.000000000E+00 -1.889520795E+01  1.889520795E+01  0.000000000E+00  0.00000E+00  9.000E+00
      23     2     1     2     0     0 -2.220379461E+01  1.767454456E+01  1.380632717E+02  1.678753000E+02  9.118800000E+01  0.00000E+00  9.000E+00
     -13     1     3     3     0     0  3.366825576E+01  1.416289974E+01  3.499467947E+01  5.058436457E+01  1.057000000E-01  0.00000E+00  9.000E+00
      13     1     3     3     0     0 -5.587205037E+01  3.511644812E+00  1.030685922E+02  1.172909354E+02  1.057000000E-01  0.00000E+00  9.000E+00
       2     1     1     2   512     0 -2.052027387E+00 -3.369552822E+00  2.563545596E+02  2.563851280E+02  3.300000000E-01  0.00000E+00  9.000E+00
      -2     1     1     2     0   502  6.764806503E+00 -8.267481113E+00  2.103150903E+02  2.105864667E+02  3.300000000E-01  0.00000E+00  9.000E+00
      21     1     1     2   501   512  1.749101549E+01 -6.037510621E+00  1.846293845E+01  2.613938128E+01  3.180900589E-06  0.00000E+00  9.000E+00
</event>
<event>
      8  10001  1.06732E-02  2.21961E+02 -1.00000E+00  1.11897E-01
       2    -1     0     0   501     0  0.000000000E+00  0.000000000E+00  2.527888802E+03  2.527888802E+03  0.000000000E+00  0.00000E+00  9.000E+00
      -2    -1     0     0     0   502  0.000000000E+00  0.000000000E+00 -5.242019370E+01  5.242019370E+01  0.000000000E+00  0.00000E+00  9.000E+00
      23     2     1     2     0     0 -1.008430511E+02  5.719193504E+01  1.501664312E+03  1.508890716E+03  9.118800000E+01  0.00000E+00  9.000E+00
     -13     1     3     3     0     0 -1.177529584E+02  5.366885927E+01  1.266957599E+03  1.273549243E+03  1.057000000E-01  0.00000E+00  9.000E+00
      13     1     3     3     0     0  1.690990730E+01  3.523075767E+00  2.347067129E+02  2.353414738E+02  1.057000000E-01  0.00000E+00  9.000E+00
       2     1     1     2   501     0  1.327943204E+02  4.989270189E+01  9.048281902E+01  1.682583212E+02  3.300000000E-01  0.00000E+00  9.000E+00
      -2     1     1     2     0   511 -8.916782229E+00 -3.470540628E+01  3.077161216E+01  4.723320067E+01  3.300000000E-01  0.00000E+00  9.000E+00
      21     1     1     2   511   502 -2.303448706E+01 -7.237923066E+01  8.525498660E+02  8.559267578E+02  1.525878906E-05  0.00000E+00  9.000E+00
</event>
<event>
      8  10001  1.20875E-02  2.11918E+02 -1.00000E+00  1.12637E-01
       2    -1     0     0   501     0  0.000000000E+00  0.000000000E+00  1.582224352E+02  1.582224352E+02  0.000000000E+00  0.00000E+00  9.000E+00
       4    -1     0     0   502     0  0.000000000E+00  0.000000000E+00 -1.743643815E+02  1.743643815E+02  0.000000000E+00  0.00000E+00  9.000E+00
      23     2     1     2     0     0 -7.000706048E+01  8.327598922E+01 -3.151586586E+01  1.454110726E+02  9.118800000E+01  0.00000E+00  9.000E+00
     -13     1     3     3     0     0 -1.667163426E+01  4.110564628E+01 -5.750079841E+01  7.262210776E+01  1.057000000E-01  0.00000E+00  9.000E+00
      13     1     3     3     0     0 -5.333542623E+01  4.217034294E+01  2.598493255E+01  7.278896487E+01  1.057000000E-01  0.00000E+00  9.000E+00
       2     1     1     2   501     0  6.371437038E+00  3.675746756E+01  2.960573865E+00  3.742433071E+01  3.300000000E-01  0.00000E+00  9.000E+00
       4     1     1     2   512     0 -1.872176917E+00 -1.764547583E+00 -1.200152489E+01  1.236548723E+01  1.500000000E+00  0.00000E+00  9.000E+00
      21     1     1     2   502   512  6.550780036E+01 -1.182689092E+02  2.441487068E+01  1.373859261E+02  1.651812370E-06  0.00000E+00  9.000E+00
</event>
<event>
      8  10001  1.12150E-02  4.42122E+02 -1.00000E+00  1.01944E-01
       2    -1     0     0   501     0  0.000000000E+00  0.000000000E+00  1.347054965E+03  1.347054965E+03  0.000000000E+00  0.00000E+00  9.000E+00
      -2    -1     0     0     0   502  0.000000000E+00  0.000000000E+00 -2.082032101E+02  2.082032101E+02  0.000000000E+00  0.00000E+00  9.000E+00
      23     2     1     2     0     0  8.466720645E+01 -6.974268318E+01  1.223584113E+01  1.431696366E+02  9.118800000E+01  0.00000E+00  9.000E+00
     -13     1     3     3     0     0  2.637578560E+01 -7.895888544E+01  1.231650359E+01  8.415399627E+01  1.057000000E-01  0.00000E+00  9.000E+00
      13     1     3     3     0     0  5.829142086E+01  9.216202262E+00 -8.066245924E-02  5.901564037E+01  1.057000000E-01  0.00000E+00  9.000E+00
       2     1     1     2   501     0 -7.836386177E+01  1.271270594E+02  1.241847349E+03  1.250794600E+03  3.300000000E-01  0.00000E+00  9.000E+00
      -2     1     1     2     0   511  9.829992714E+00 -1.321532422E+01  1.534200987E+01  2.251132421E+01  3.300000000E-01  0.00000E+00  9.000E+00
      21     1     1     2   511   502 -1.613333740E+01 -4.416905204E+01 -1.305734446E+02  1.387826148E+02  1.221299026E-05  0.00000E+00  9.000E+00
</event>
<event>
      8  10001  1.06877E-02  5.07052E+02 -1.00000E+00  1.00176E-01
       2    -1     0     0   501     0  0.000000000E+00  0.000000000E+00  1.801782124E+03  1.801782124E+03  0.000000000E+00  0.00000E+00  9.000E+00
       1    -1     0     0   502     0  0.000000000E+00  0.000000000E+00 -2.225833426E+02  2.225833426E+02  0.000000000E+00  0.00000E+00  9.000E+00
      23     2     1     2     0     0 -1.052214697E+02 -7.131208062E+01  2.683747455E+02  3.106400263E+02  9.118800000E+01  0.00000E+00  9.000E+00
     -13     1     3     3     0     0 -5.985810037E+01  1.106368509E+01  8.488134820E+01  1.044521505E+02  1.057000000E-01  0.00000E+00  9.000E+00
      13     1     3     3     0     0 -4.536336932E+01 -8.237576571E+01  1.834933973E+02  2.061878757E+02  1.057000000E-01  0.00000E+00  9.000E+00
       2     1     1     2   512     0 -9.506118398E+01 -1.723204180E+02  1.070201513E+02  2.240186975E+02  3.300000000E-01  0.00000E+00  9.000E+00
       1     1     1     2   502     0  7.479943852E+01  1.788824445E+02  1.302869142E+03  1.317217520E+03  3.300000000E-01  0.00000E+00  9.000E+00
      21     1     1     2   501   512  1.254832151E+02  6.475005407E+01 -9.906525737E+01  1.724892229E+02  8.092194914E-06  0.00000E+00  9.000E+00
</event>
<event>
      8  10001  1.05310E-02  5.39209E+02 -1.00000E+00  9.94029E-02
       1    -1     0     0   501     0  0.000000000E+00  0.000000000E+00  6.072213128E+02  6.072213128E+02  0.000000000E+00  0.00000E+00  9.000E+00
       2    -1     0     0   502     0  0.000000000E+00  0.000000000E+00 -2.192215279E+03  2.192215279E+03  0.000000000E+00  0.00000E+00  9.000E+00
      23     2     1     2     0     0  8.994168371E+02 -4.608577652E+02 -7.544390632E+02  1.264450109E+03  9.118800000E+01  0.00000E+00  9.000E+00
     -13     1     3     3     0     0  7.031745538E+02 -3.997575119E+02 -6.142334846E+02  1.015649204E+03  1.057000000E-01  0.00000E+00  9.000E+00
      13     1     3     3     0     0  1.962422833E+02 -6.110025326E+01 -1.402055786E+02  2.488009046E+02  1.057000000E-01  0.00000E+00  9.000E+00
       2     1     1     2   501     0 -8.480892556E+02  2.815024230E+02 -6.882972887E+02  1.127941606E+03  3.300000000E-01  0.00000E+00  9.000E+00
       1     1     1     2   511     0  2.518233628E+01  3.252085776E+00 -2.038320492E+02  2.054077392E+02  3.300000000E-01  0.00000E+00  9.000E+00
      21     1     1     2   502   511 -7.650991773E+01  1.761032564E+02  6.157443478E+01  2.016371381E+02  4.573661350E-06  0.00000E+00  9.000E+00
</event>
<event>
      8  10001  1.33232E-02  1.53347E+02 -1.00000E+00  1.18103E-01
      -2    -1     0     0     0   501  0.000000000E+00  0.000000000E+00  2.762426299E+01  2.762426299E+01  0.000000000E+00  0.00000E+00  9.000E+00
      -3    -1     0     0     0   502  0.000000000E+00  0.000000000E+00 -8.869322095E+02  8.869322095E+02  0.000000000E+00  0.00000E+00  9.000E+00
      23     2     1     2     0     0 -7.350843951E+01 -3.926279139E+01 -2.249916281E+02  2.566739985E+02  9.118800000E+01  0.00000E+00  9.000E+00
     -13     1     3     3     0     0 -5.511408550E+01 -6.097614812E+01 -2.077074498E+02  2.233787119E+02  1.057000000E-01  0.00000E+00  9.000E+00
      13     1     3     3     0     0 -1.839435402E+01  2.171335672E+01 -1.728417829E+01  3.329528663E+01  1.057000000E-01  0.00000E+00  9.000E+00
      -1     1     1     2     0   512 -1.824292812E+00  3.512611900E+01 -3.006550472E+01  4.627327257E+01  3.300000000E-01  0.00000E+00  9.000E+00
      -4     1     1     2     0   502  2.504402278E+01  2.843622775E+01 -2.060487402E+02  2.095093207E+02  1.500000000E+00  0.00000E+00  9.000E+00
      21     1     1     2   512   501  5.028870955E+01 -2.429955536E+01 -3.982020736E+02  4.020998807E+02  0.000000000E+00  0.00000E+00  9.000E+00
</event>
<event>
      8  10001  1.05772E-02  3.71948E+02 -1.00000E+00  1.04267E-01
       3    -1     0     0   501     0  0.000000000E+00  0.000000000E+00  7.660168391E+01  7.660168391E+01  0.000000000E+00  0.00000E+00  9.000E+00
       2    -1     0     0   502     0  0.000000000E+00  0.000000000E+00 -3.105738062E+03  3.105738062E+03  0.000000000E+00  0.00000E+00  9.000E+00
      23     2     1     2     0     0 -6.699652353E+01  3.592980229E+02 -1.164265745E+03  1.223688514E+03  9.118800000E+01  0.00000E+00  9.000E+00
     -13     1     3     3     0     0 -8.435832826E+01  3.375107214E+02 -1.098277585E+03  1.152060537E+03  1.057000000E-01  0.00000E+00  9.000E+00
      13     1     3     3     0     0  1.736180473E+01  2.178730150E+01 -6.598815975E+01  7.162797756E+01  1.057000000E-01  0.00000E+00  9.000E+00
       4     1     1     2   511     0 -8.852566070E+00  4.250510744E+01 -1.723162004E+01  4.673575519E+01  1.500000000E+00  0.00000E+00  9.000E+00
       1     1     1     2   502     0 -1.096657802E+01 -3.058183357E+02 -8.037554496E+02  8.600395641E+02  3.300000000E-01  0.00000E+00  9.000E+00
      21     1     1     2   501   511  8.681566761E+01 -9.598479465E+01 -1.043883564E+03  1.051875912E+03  2.642899792E-05  0.00000E+00  9.000E+00
</event>
<event>
      8  10001  1.78209E-02  1.78487E+02 -1.00000E+00  1.15472E-01
      -2    -1     0     0     0   501  0.000000000E+00  0.000000000E+00  1.758221171E+02  1.758221171E+02  0.000000000E+00  0.00000E+00  9.000E+00
       2    -1     0     0   502     0  0.000000000E+00  0.000000000E+00 -1.674703982E+03  1.674703982E+03  0.000000000E+00  0.00000E+00  9.000E+00
      23     2     1     2     0     0  4.232081987E+01 -3.755927162E+01 -1.227009682E+03  1.231693858E+03  9.118800000E+01  0.00000E+00  9.000E+00
     -13     1     3     3     0     0  5.137948190E+01 -6.159216346E+00 -1.073379532E+03  1.074626176E+03  1.057000000E-01  0.00000E+00  9.000E+00
      13     1     3     3     0     0 -9.058662031E+00 -3.140005528E+01 -1.536301494E+02  1.570676823E+02  1.057000000E-01  0.00000E+00  9.000E+00
      -2     1     1     2     0   501 -2.193347903E+01  8.192066416E+00  1.678403521E+02  1.694658672E+02  3.300000000E-01  0.00000E+00  9.000E+00
       2     1     1     2   511     0  1.808184687E+01 -1.795998108E+01 -6.676124079E+01  7.146108227E+01  3.300000000E-01  0.00000E+00  9.000E+00
      21     1     1     2   502   511 -3.846918772E+01  4.732718629E+01 -3.729512950E+02  3.779052916E+02  0.000000000E+00  0.00000E+00  9.000E+00
</event>
<event>
      8  10001  1.08556E-02  1.45270E+02 -1.00000E+00  1.19070E-01
      -4    -1     0     0     0   501  0.000000000E+00  0.000000000E+00  1.996205677E+02  1.996205677E+02  0.000000000E+00  0.00000E+00  9.000E+00
       2    -1     0     0   502     0  0.000000000E+00  0.000000000E+00 -1.113773367E+03  1.113773367E+03  0.000000000E+00  0.00000E+00  9.000E+00
      23     2     1     2     0     0  2.342740175E+02 -6.945398063E+01  6.342276713E+01  2.684136164E+02  9.118800000E+01  0.00000E+00  9.000E+00
     -13     1     3     3     0     0  2.111855443E+02 -8.933769375E+01  6.353164230E+01  2.379429309E+02  1.057000000E-01  0.00000E+00  9.000E+00
      13     1     3     3     0     0  2.308847324E+01  1.988371311E+01 -1.088751669E-01  3.047068542E+01  1.057000000E-01  0.00000E+00  9.000E+00
      -3     1     1     2     0   512 -3.397919951E+01  3.899151451E+01 -1.432579484E+01  5.366938234E+01  5.000000000E-01  0.00000E+00  9.000E+00
       1     1     1     2   502     0 -2.007013775E+02  5.023824141E+01 -7.791348529E+02  8.061365590E+02  3.300000000E-01  0.00000E+00  9.000E+00
      21     1     1     2   512   501  4.065595169E-01 -1.977577528E+01 -1.841149190E+02  1.851743772E+02  4.672030912E-06  0.00000E+00  9.000E+00
</event>
<event>
      8  10001  1.09008E-02  6.64705E+01 -1.00000E+00  1.35110E-01
       1    -1     0     0   501     0  0.000000000E+00  0.000000000E+00  3.716633901E+02  3.716633901E+02  0.000000000E+00  0.00000E+00  9.000E+00
       2    -1     0     0   502     0  0.000000000E+00  0.000000000E+00 -1.016820387E+03  1.016820387E+03  0.000000000E+00  0.00000E+00  9.000E+00
      23     2     1     2     0     0  1.024242946E+02  3.882130925E+02  1.920875630E+01  4.121703155E+02  9.118800000E+01  0.00000E+00  9.000E+00
     -13     1     3     3     0     0  1.157087753E+02  3.668538297E+02  8.314727534E+00  3.847588841E+02  1.057000000E-01  0.00000E+00  9.000E+00
      13     1     3     3     0     0 -1.328448070E+01  2.135926284E+01  1.089402876E+01  2.741143140E+01  1.057000000E-01  0.00000E+00  9.000E+00
       1     1     1     2   511     0 -3.369555364E+01  5.198548627E+01  1.767720234E+01  6.442416861E+01  3.300000000E-01  0.00000E+00  9.000E+00
       2     1     1     2   502     0 -5.758233531E+01 -4.414760093E+02 -7.341437665E+02  8.585941829E+02  3.300000000E-01  0.00000E+00  9.000E+00
      21     1     1     2   501   511 -1.114640568E+01  1.277430490E+00  5.210081124E+01  5.329510972E+01  9.536743164E-07  0.00000E+00  9.000E+00
</event>
<event>
      8  10001  1.06014E-02  1.74799E+02 -1.00000E+00  1.15827E-01
       2    -1     0     0   501     0  0.000000000E+00  0.000000000E+00  1.565140133E+03  1.565140133E+03  0.000000000E+00  0.00000E+00  9.000E+00
      -4    -1     0     0     0   502  0.000000000E+00  0.000000000E+00 -7.313540997E+01  7.313540997E+01  0.000000000E+00  0.00000E+00  9.000E+00
      23     2     1     2     0     0  1.505523491E+01 -3.105344440E+00  7.944850958E+02  7.998488120E+02  9.118800000E+01  0.00000E+00  9.000E+00
     -13     1     3     3     0     0 -3.163156100E+01 -2.369683685E+00  1.335072395E+02  1.372237779E+02  1.057000000E-01  0.00000E+00  9.000E+00
      13     1     3     3     0     0  4.668679591E+01 -7.356607551E-01  6.609778563E+02  6.626250341E+02  1.057000000E-01  0.00000E+00  9.000E+00
       1     1     1     2   511     0  1.785840121E+02  7.366174810E+01  4.066135613E+02  4.501699675E+02  3.300000000E-01  0.00000E+00  9.000E+00
      -3     1     1     2     0   502 -1.683082618E+02 -6.481127901E+01  3.081707229E+02  3.570680850E+02  5.000000000E-01  0.00000E+00  9.000E+00
      21     1     1     2   501   511 -2.533098523E+01 -5.745124657E+00 -1.726465710E+01  3.118867831E+01  1.581489940E-06  0.00000E+00  9.000E+00
</event>
<event>
      8  10001  2.16026E-02  8.10571E+01 -1.00000E+00  1.30635E-01
       4    -1     0     0   501     0  0.000000000E+00  0.000000000E+00  1.340324861E+02  1.340324861E+02  0.000000000E+00  0.00000E+00  9.000E+00
       4    -1     0     0   502     0  0.000000000E+00  0.000000000E+00 -7.146195873E+01  7.146195873E+01  0.000000000E+00  0.00000E+00  9.000E+00
      23     2     1     2     0     0  1.733731792E+01  1.631065517E+01  4.457003659E+01  1.042514248E+02  9.118800000E+01  0.00000E+00  9.000E+00
     -13     1     3     3     0     0 -3.748246896E+00 -3.607383922E+01  2.665174191E+01  4.500775211E+01  1.057000000E-01  0.00000E+00  9.000E+00
      13     1     3     3     0     0  2.108556481E+01  5.238449439E+01  1.791829469E+01  5.924367268E+01  1.057000000E-01  0.00000E+00  9.000E+00
       4     1     1     2   501     0  2.419021428E+00 -1.366445843E+01 -5.970742183E+00  1.518120058E+01  1.500000000E+00  0.00000E+00  9.000E+00
       4     1     1     2   511     0 -3.447384989E+00 -1.430765974E+00 -2.969130223E+01  2.996255968E+01  1.500000000E+00  0.00000E+00  9.000E+00
      21     1     1     2   502   511 -1.630895435E+01 -1.215430759E+00  5.366253515E+01  5.609925973E+01  6.743495762E-07  0.00000E+00  9.000E+00
</event>
<event>
      8  10001  1.48870E-02  1.64670E+02 -1.00000E+00  1.16853E-01
       2    -1     0     0   501     0  0.000000000E+00  0.000000000E+00  1.083990609E+03  1.083990609E+03  0.000000000E+00  0.00000E+00  9.000E+00
       1    -1     0     0   502     0  0.000000000E+00  0.000000000E+00 -7.484858915E+01  7.484858915E+01  0.000000000E+00  0.00000E+00  9.000E+00
      23     2     1     2     0     0  4.874904936E+01 -4.632766280E+01 -2.212062116E+01  1.154439058E+02  9.118800000E+01  0.00000E+00  9.000E+00
     -13     1     3     3     0     0  2.780148068E+01  7.972639768E+00 -4.451308869E+01  5.308400465E+01  1.057000000E-01  0.00000E+00  9.000E+00
      13     1     3     3     0     0  2.094756868E+01 -5.430030256E+01  2.239246753E+01  6.235990111E+01  1.057000000E-01  0.00000E+00  9.000E+00
       1     1     1     2   512     0  8.301224664E+00  2.644933619E+00  2.749451508E+01  2.884377340E+01  3.300000000E-01  0.00000E+00  9.000E+00
       2     1     1     2   502     0 -7.231285826E+01  4.643498533E+01  3.430240052E+02  3.536254153E+02  3.300000000E-01  0.00000E+00  9.000E+00
      21     1     1     2   501   512  1.526258423E+01 -2.752256149E+00  6.607441206E+02  6.609261036E+02  1.321449896E-05  0.00000E+00  9.000E+00
</event>
<event>
      8  10001  1.09195E-02  1.32141E+02 -1.00000E+00  1.20803E-01
       1    -1     0     0   501     0  0.000000000E+00  0.000000000E+00  2.106814420E+02  2.106814420E+02  0.000000000E+00  0.00000E+00  9.000E+00
       2    -1     0     0   502     0  0.000000000E+00  0.000000000E+00 -7.264728095E+02  7.264728095E+02  0.000000000E+00  0.00000E+00  9.000E+00
      23     2     1     2     0     0 -9.004029401E+00  8.734202758E+01 -4.564444484E+02  4.736733981E+02  9.118800000E+01  0.00000E+00  9.000E+00
     -13     1     3     3     0     0  2.196984744E+01  4.975998130E+00 -2.633839076E+01  3.465770844E+01  1.057000000E-01  0.00000E+00  9.000E+00
      13     1     3     3     0     0 -3.097387684E+01  8.236602945E+01 -4.301060576E+02  4.390156897E+02  1.057000000E-01  0.00000E+00  9.000E+00
       1     1     1     2   501     0 -7.082213033E+01 -6.019282815E+00  1.663762863E+02  1.809231424E+02  3.300000000E-01  0.00000E+00  9.000E+00
       2     1     1     2   511     0  7.132317366E+01 -5.440580981E+01 -4.634131167E+01  1.009683778E+02  3.300000000E-01  0.00000E+00  9.000E+00
      21     1     1     2   502   511  8.502986077E+00 -2.691693495E+01 -1.793818937E+02  1.815893333E+02  2.697398305E-06  0.00000E+00  9.000E+00
</event>
<event>
      8  10001  1.33124E-02  1.72920E+02 -1.00000E+00  1.16011E-01
      -3    -1     0     0     0   501  0.000000000E+00  0.000000000E+00  9.770464171E+01  9.770464171E+01  0.000000000E+00  0.00000E+00  9.000E+00
      -2    -1     0     0     0   502  0.000000000E+00  0.000000000E+00 -5.822596290E+02  5.822596290E+02  0.000000000E+00  0.00000E+00  9.000E+00
      23     2     1     2     0     0 -8.338152475E+01 -2.371411516E+01 -5.187331477E+02  5.337735173E+02  9.118800000E+01  0.00000E+00  9.000E+00
     -13     1     3     3     0     0 -7.420728712E+01 -2.694480869E+01 -2.018319856E+02  2.167231085E+02  1.057000000E-01  0.00000E+00  9.000E+00
      13     1     3     3     0     0 -9.174237626E+00  3.230693522E+00 -3.169011621E+02  3.170504088E+02  1.057000000E-01  0.00000E+00  9.000E+00
      -4     1     1     2     0   501  2.930628488E+01  1.573334237E+01 -2.018591579E+01  3.893735471E+01  1.500000000E+00  0.00000E+00  9.000E+00
      -1     1     1     2     0   512  2.895229370E+01 -6.833424660E+00 -1.403625017E+01  3.289462300E+01  3.300000000E-01  0.00000E+00  9.000E+00
      21     1     1     2   512   502  2.512294617E+01  1.481419745E+01  6.840032638E+01  7.435877567E+01  1.348699152E-06  0.00000E+00  9.000E+00
</event>
<event>
      8  10001  2.94114E-02  1.08223E+02 -1.00000E+00  1.24631E-01
       4    -1     0     0   501     0  0.000000000E+00  0.000000000E+00  9.851000803E+01  9.851000803E+01  0.000000000E+00  0.00000E+00  9.000E+00
      -2    -1     0     0     0   502  0.000000000E+00  0.000000000E+00 -1.263006922E+02  1.263006922E+02  0.000000000E+00  0.00000E+00  9.000E+00
      23     2     1     2     0     0 -2.513359869E+01  3.710547710E+01  6.051549027E+01  1.182619555E+02  9.118800000E+01  0.00000E+00  9.000E+00
     -13     1     3     3     0     0 -1.695389977E+01 -2.940856066E+01  1.418210974E+01  3.678915012E+01  1.057000000E-01  0.00000E+00  9.000E+00
      13     1     3     3     0     0 -8.179698920E+00  6.651403776E+01  4.633338053E+01  8.147280539E+01  1.057000000E-01  0.00000E+00  9.000E+00
       3     1     1     2   511     0 -1.072653711E+00  2.512092942E+00  2.233154986E+00  3.563450312E+00  5.000000000E-01  0.00000E+00  9.000E+00
      -1     1     1     2     0   502  7.265572094E+00 -1.242421096E+01 -4.035755283E+01  4.284846002E+01  3.300000000E-01  0.00000E+00  9.000E+00
      21     1     1     2   501   511  1.894068030E+01 -2.719335909E+01 -5.018177658E+01  6.013683438E+01  9.536743164E-07  0.00000E+00  9.000E+00
</event>
<event>
      8  10001  1.89079E-02  6.31291E+01 -1.00000E+00  1.36326E-01
      -2    -1     0     0     0   501  0.000000000E+00  0.000000000E+00  1.044216985E+02  1.044216985E+02  0.000000000E+00  0.00000E+00  9.000E+00
      -4    -1     0     0     0   502  0.000000000E+00  0.000000000E+00 -1.031399220E+02  1.031399220E+02  0.000000000E+00  0.00000E+00  9.000E+00
      23     2     1     2     0     0  2.830402405E+01 -4.688954852E+01 -4.695223046E+01  1.162734313E+02  9.118800000E+01  0.00000E+00  9.000E+00
     -13     1     3     3     0     0  4.185922298E+01  1.376874754E+01 -2.254911841E+01  4.949996840E+01  1.057000000E-01  0.00000E+00  9.000E+00
      13     1     3     3     0     0 -1.355519893E+01 -6.065829606E+01 -2.440311205E+01  6.677346291E+01  1.057000000E-01  0.00000E+00  9.000E+00
      -2     1     1     2     0   511  4.294981354E-01 -3.375670391E-01  8.352339846E-01  1.051159342E+00  3.300000000E-01  0.00000E+00  9.000E+00
      -4     1     1     2     0   502 -8.614807231E+00  1.878366141E+01  5.115875865E+01  5.519519387E+01  1.500000000E+00  0.00000E+00  9.000E+00
      21     1     1     2   511   501 -2.011871496E+01  2.844345414E+01 -3.759985663E+00  3.504183596E+01  5.144678504E-07  0.00000E+00  9.000E+00
</event>
<event>
      8  10001  1.06780E-02  1.69832E+02 -1.00000E+00  1.16320E-01
       2    -1     0     0   501     0  0.000000000E+00  0.000000000E+00  1.812469768E+03  1.812469768E+03  0.000000000E+00  0.00000E+00  9.000E+00
       3    -1     0     0   502     0  0.000000000E+00  0.000000000E+00 -5.568857777E+01  5.568857777E+01  0.000000000E+00  0.00000E+00  9.000E+00
      23     2     1     2     0     0  2.014759834E+02 -1.719681693E+02  7.899414053E+02  8.381457500E+02  9.118800000E+01  0.00000E+00  9.000E+00
     -13     1     3     3     0     0  9.088228020E+01 -2.316580525E+01  2.989420929E+02  3.133091596E+02  1.057000000E-01  0.00000E+00  9.000E+00
      13     1     3     3     0     0  1.105937032E+02 -1.488023641E+02  4.909993123E+02  5.248365904E+02  1.057000000E-01  0.00000E+00  9.000E+00
       1     1     1     2   501     0 -1.670359204E+02  1.004506388E+02  5.303461889E+02  5.650296616E+02  3.300000000E-01  0.00000E+00  9.000E+00
       4     1     1     2   511     0  2.331545626E+01  1.826351851E+01  9.971887928E+00  3.128666102E+01  1.500000000E+00  0.00000E+00  9.000E+00
      21     1     1     2   502   511 -5.775551924E+01  5.325401204E+01  4.265217079E+02  4.336962729E+02  5.394796609E-06  0.00000E+00  9.000E+00
</event>
<event>
      8  10001  1.08006E-02  4.35441E+02 -1.00000E+00  1.02145E-01
       2    -1     0     0   501     0  0.000000000E+00  0.000000000E+00  7.050737078E+02  7.050737078E+02  0.000000000E+00  0.00000E+00  9.000E+00
      -2    -1     0     0     0   502  0.000000000E+00  0.000000000E+00 -4.490780552E+02  4.490780552E+02  0.000000000E+00  0.00000E+00  9.000E+00
      23     2     1     2     0     0  3.528581155E+02 -7.906912261E+00 -3.433818977E+01  3.661498758E+02  9.118800000E+01  0.00000E+00  9.000E+00
     -13     1     3     3     0     0  2.900693642E+02  2.407721845E+01 -4.614418522E+01  2.947019605E+02  1.057000000E-01  0.00000E+00  9.000E+00
      13     1     3     3     0     0  6.278875130E+01 -3.198413071E+01  1.180599545E+01  7.144791535E+01  1.057000000E-01  0.00000E+00  9.000E+00
       2     1     1     2   512     0 -2.313624064E+00 -5.367144695E-01  4.794114517E+01  4.800107518E+01  3.300000000E-01  0.00000E+00  9.000E+00
      -2     1     1     2     0   502 -3.810160945E+02  6.725466303E+01  4.076112883E+02  5.619995776E+02  3.300000000E-01  0.00000E+00  9.000E+00
      21     1     1     2   501   512  3.047160305E+01 -5.881103630E+01 -1.652185912E+02  1.780012344E+02  9.910874219E-06  0.00000E+00  9.000E+00
</event>
<event>
      8  10001  7.52933E-02  5.29861E+00 -1.00000E+00  2.43314E-01
       2    -1     0     0   501     0  0.000000000E+00  0.000000000E+00  9.506580039E+00  9.506580039E+00  0.000000000E+00  0.00000E+00  9.000E+00
       2    -1     0     0   502     0  0.000000000E+00  0.000000000E+00 -9.720762701E+02  9.720762701E+02  0.000000000E+00  0.00000E+00  9.000E+00
      23     2     1     2     0     0 -4.823423105E+01 -3.806720811E+01 -7.138025634E+02  7.222222679E+02  9.118800000E+01  0.00000E+00  9.000E+00
     -13     1     3     3     0     0  1.021070218E+01 -4.397201742E+01 -4.326446187E+02  4.349933035E+02  1.057000000E-01  0.00000E+00  9.000E+00
      13     1     3     3     0     0 -5.844493323E+01  5.904809306E+00 -2.811579447E+02  2.872289645E+02  1.057000000E-01  0.00000E+00  9.000E+00
       2     1     1     2   511     0  5.027372965E-01 -3.014240130E+00 -6.480516648E+00  7.172474077E+00  3.300000000E-01  0.00000E+00  9.000E+00
       2     1     1     2   502     0  4.782440999E+01  4.373908330E+01 -2.095471671E+02  2.193408438E+02  3.300000000E-01  0.00000E+00  9.000E+00
      21     1     1     2   501   511 -9.291623083E-02 -2.657635063E+00 -3.273944285E+01  3.284726435E+01  9.536743164E-07  0.00000E+00  9.000E+00
</event>
<event>
      8  10001  1.98211E-02  1.24990E+02 -1.00000E+00  1.21846E-01
       1    -1     0     0   501     0  0.000000000E+00  0.000000000E+00  8.676022609E+01  8.676022609E+01  0.000000000E+00  0.00000E+00  9.000E+00
       2    -1     0     0   502     0  0.000000000E+00  0.000000000E+00 -2.894352950E+02  2.894352950E+02  0.000000000E+00  0.00000E+00  9.000E+00
      23     2     1     2     0     0  5.605059972E+01 -1.886402736E+01 -2.491769854E+02  2.718491175E+02  9.118800000E+01  0.00000E+00  9.000E+00
     -13     1     3     3     0     0  6.599759651E+01  8.918100354E+00 -1.025154108E+02  1.222482551E+02  1.057000000E-01  0.00000E+00  9.000E+00
      13     1     3     3     0     0 -9.946996782E+00 -2.778212771E+01 -1.466615747E+02  1.496008624E+02  1.057000000E-01  0.00000E+00  9.000E+00
       2     1     1     2   501     0 -4.545078824E+01  7.681452491E+00  2.203817117E+01  5.109372517E+01  3.300000000E-01  0.00000E+00  9.000E+00
       1     1     1     2   511     0 -4.175398578E-01 -8.320031304E+00 -9.591884635E+00  1.270867465E+01  3.300000000E-01  0.00000E+00  9.000E+00
      21     1     1     2   502   511 -1.018227163E+01  1.950260617E+01  3.405563003E+01  4.054400375E+01  1.581489940E-06  0.00000E+00  9.000E+00
</event>
<event>
      8  10001  3.13573E-02  4.47088E+01 -1.00000E+00  1.45072E-01
       2    -1     0     0   501     0  0.000000000E+00  0.000000000E+00  1.339196734E+03  1.339196734E+03  0.000000000E+00  0.00000E+00  9.000E+00
       4    -1     0     0   502     0  0.000000000E+00  0.000000000E+00 -4.788216932E+01  4.788216932E+01  0.000000000E+00  0.00000E+00  9.000E+00
      23     2     1     2     0     0  2.934779545E+01 -6.278031045E+00  1.189732652E+03  1.193599489E+03  9.118800000E+01  0.00000E+00  9.000E+00
     -13     1     3     3     0     0  4.962752739E+01 -2.908096534E+01  5.199447932E+02  5.231168064E+02  1.057000000E-01  0.00000E+00  9.000E+00
      13     1     3     3     0     0 -2.027973194E+01  2.280293429E+01  6.697878585E+02  6.704826828E+02  1.057000000E-01  0.00000E+00  9.000E+00
       2     1     1     2   512     0  2.507186141E+00  9.299430976E+00  1.655910914E+01  1.915929003E+01  3.300000000E-01  0.00000E+00  9.000E+00
       4     1     1     2   502     0 -1.846089442E+01 -1.400345130E+00 -4.234498980E+01  4.623974211E+01  1.500000000E+00  0.00000E+00  9.000E+00
      21     1     1     2   501   512 -1.339408717E+01 -1.621054801E+00  1.273677935E+02  1.280803818E+02  1.907348633E-06  0.00000E+00  9.000E+00
</event>
<event>
      8  10001  1.38840E-02  8.24374E+01 -1.00000E+00  1.30268E-01
       2    -1     0     0   501     0  0.000000000E+00  0.000000000E+00  7.211879722E+01  7.211879722E+01  0.000000000E+00  0.00000E+00  9.000E+00
      -4    -1     0     0     0   502  0.000000000E+00  0.000000000E+00 -1.332525551E+02  1.332525551E+02  0.000000000E+00  0.00000E+00  9.000E+00
      23     2     1     2     0     0 -3.246884955E+00  8.209899492E+00 -3.281399218E+01  9.731368937E+01  9.118800000E+01  0.00000E+00  9.000E+00
     -13     1     3     3     0     0 -2.713982258E+01  3.568841492E+01 -4.013052928E+01  6.017228167E+01  1.057000000E-01  0.00000E+00  9.000E+00
      13     1     3     3     0     0  2.389293762E+01 -2.747851543E+01  7.316537091E+00  3.714140770E+01  1.057000000E-01  0.00000E+00  9.000E+00
       2     1     1     2   501     0  3.256012541E+01 -7.703979488E+00 -4.247443832E+01  5.407124816E+01  3.300000000E-01  0.00000E+00  9.000E+00
      -4     1     1     2     0   511 -2.614460758E+00 -1.084190251E+01 -1.110247496E+01  1.580813731E+01  1.500000000E+00  0.00000E+00  9.000E+00
      21     1     1     2   511   502 -2.669877970E+01  1.033598251E+01  2.525714754E+01  3.817827751E+01  4.768371582E-07  0.00000E+00  9.000E+00
</event>
<event>
      8  10001  2.41544E-01  9.91739E+01 -1.00000E+00  1.26385E-01
       1    -1     0     0   501     0  0.000000000E+00  0.000000000E+00  4.343474413E+01  4.343474413E+01  0.000000000E+00  0.00000E+00  9.000E+00
       2    -1     0     0   502     0  0.000000000E+00  0.000000000E+00 -6.716306744E+02  6.716306744E+02  0.000000000E+00  0.00000E+00  9.000E+00
      23     2     1     2     0     0  1.764981296E+01  1.134859050E+01 -7.543096865E+00  9.387468273E+01  9.118800000E+01  0.00000E+00  9.000E+00
     -13     1     3     3     0     0  1.843649693E+00 -3.541538329E+01  1.632905873E+01  3.904225595E+01  1.057000000E-01  0.00000E+00  9.000E+00
      13     1     3     3     0     0  1.580616327E+01  4.676397379E+01 -2.387215560E+01  5.483242679E+01  1.057000000E-01  0.00000E+00  9.000E+00
       1     1     1     2   512     0  1.305678743E-01  7.036130521E-02 -2.805790650E-01  4.578463659E-01  3.300000000E-01  0.00000E+00  9.000E+00
       2     1     1     2   502     0 -1.184966998E+01 -8.131878905E+00 -4.226145627E+02  4.228589831E+02  3.300000000E-01  0.00000E+00  9.000E+00
      21     1     1     2   501   512 -5.930710851E+00 -3.287072904E+00 -1.977576917E+02  1.978739063E+02  2.697398305E-06  0.00000E+00  9.000E+00
</event>
<event>
      8  10001  1.07803E-02  2.08175E+02 -1.00000E+00  1.12925E-01
      -2    -1     0     0     0   501  0.000000000E+00  0.000000000E+00  2.659661861E+02  2.659661861E+02  0.000000000E+00  0.00000E+00  9.000E+00
       2    -1     0     0   502     0  0.000000000E+00  0.000000000E+00 -9.774222247E+02  9.774222247E+02  0.000000000E+00  0.00000E+00  9.000E+00
      23     2     1     2     0     0  1.064653781E+01  1.306754223E+02  1.455849746E+02  2.161010202E+02  9.118800000E+01  0.00000E+00  9.000E+00
     -13     1     3     3     0     0 -7.724689585E+00  1.271238245E+02  8.607203490E+01  1.537157895E+02  1.057000000E-01  0.00000E+00  9.000E+00
      13     1     3     3     0     0  1.837122739E+01  3.551597783E+00  5.951293969E+01  6.238523067E+01  1.057000000E-01  0.00000E+00  9.000E+00
      -2     1     1     2     0   511  1.379375974E+00 -1.212014545E-01 -3.586266955E+00  3.858442502E+00  3.300000000E-01  0.00000E+00  9.000E+00
       2     1     1     2   502     0 -1.146895627E+02 -1.054860868E+02  7.507785372E+00  1.560047629E+02  3.300000000E-01  0.00000E+00  9.000E+00
      21     1     1     2   511   501  1.026636489E+02 -2.506813401E+01 -8.609625317E+02  8.674241852E+02  3.411968960E-05  0.00000E+00  9.000E+00
</event>
<event>
      8  10001  1.08789E-02  2.74991E+02 -1.00000E+00  1.08597E-01
       1    -1     0     0   501     0  0.000000000E+00  0.000000000E+00  1.129170871E+03  1.129170871E+03  0.000000000E+00  0.00000E+00  9.000E+00
      -3    -1     0     0     0   502  0.000000000E+00  0.000000000E+00 -1.715900008E+02  1.715900008E+02  0.000000000E+00  0.00000E+00  9.000E+00
      23     2     1     2     0     0  8.168073744E+01 -1.599536066E+02 -6.789551212E+01  2.125604644E+02  9.118800000E+01  0.00000E+00  9.000E+00
     -13     1     3     3     0     0  2.436756619E+01 -1.286075082E+02 -2.201747119E+01  1.327345082E+02  1.057000000E-01  0.00000E+00  9.000E+00
      13     1     3     3     0     0  5.731317125E+01 -3.134609841E+01 -4.587804093E+01  7.982595628E+01  1.057000000E-01  0.00000E+00  9.000E+00
       2     1     1     2   501     0 -3.243100525E+01  2.228548890E+02  4.193042933E+02  4.759540639E+02  3.300000000E-01  0.00000E+00  9.000E+00
      -4     1     1     2     0   511  9.166376038E-01 -2.417210351E+00  4.132743636E+00  5.100264733E+00  1.500000000E+00  0.00000E+00  9.000E+00
      21     1     1     2   511   502 -5.016636979E+01 -6.048407200E+01  6.020393451E+02  6.071460785E+02  1.705984480E-05  0.00000E+00  9.000E+00
</event>
<event>
      8  10001  1.26676E-02  3.02045E+01 -1.00000E+00  1.56532E-01
       2    -1     0     0   501     0  0.000000000E+00  0.000000000E+00  2.501023946E+02  2.501023946E+02  0.000000000E+00  0.00000E+00  9.000E+00
      -4    -1     0     0     0   502  0.000000000E+00  0.000000000E+00 -9.019616174E+01  9.019616174E+01  0.000000000E+00  0.00000E+00  9.000E+00
      23     2     1     2     0     0  8.080311810E+01  6.529239737E+01  6.590684414E+00  1.383868835E+02  9.118800000E+01  0.00000E+00  9.000E+00
     -13     1     3     3     0     0 -1.663721189E+01  1.798134090E+01  1.662207425E+01  2.960455987E+01  1.057000000E-01  0.00000E+00  9.000E+00
      13     1     3     3     0     0  9.744032998E+01  4.731105647E+01 -1.003138984E+01  1.087823236E+02  1.057000000E-01  0.00000E+00  9.000E+00
       2     1     1     2   501     0 -5.758065180E+01 -7.087182538E+01  1.133116437E+02  1.455265769E+02  3.300000000E-01  0.00000E+00  9.000E+00
      -4     1     1     2     0   512 -2.109646903E+01  5.339652778E+00  6.427527750E+00  2.274062466E+01  1.500000000E+00  0.00000E+00  9.000E+00
      21     1     1     2   512   502 -2.125997273E+00  2.397752349E-01  3.357637699E+01  3.364447129E+01  4.768371582E-07  0.00000E+00  9.000E+00
</event>
<event>
      8  10001  1.15009E-02  1.38529E+02 -1.00000E+00  1.19933E-01
      -2    -1     0     0     0   501  0.000000000E+00  0.000000000E+00  1.626201013E+03  1.626201013E+03  0.000000000E+00  0.00000E+00  9.000E+00
       4    -1     0     0   502     0  0.000000000E+00  0.000000000E+00 -1.857727044E+02  1.857727044E+02  0.000000000E+00  0.00000E+00  9.000E+00
      23     2     1     2     0     0  5.228755667E+01  2.793093373E+02  1.400465179E+03  1.431909796E+03  9.118800000E+01  0.00000E+00  9.000E+00
     -13     1     3     3     0     0  3.839991807E+01  2.458701485E+02  1.325508480E+03  1.348665795E+03  1.057000000E-01  0.00000E+00  9.000E+00
      13     1     3     3     0     0  1.388763860E+01  3.343918879E+01  7.495669886E+01  8.324400116E+01  1.057000000E-01  0.00000E+00  9.000E+00
      -1     1     1     2     0   511 -1.137199896E+02 -2.320457970E+02  8.633392407E+01  2.724539287E+02  3.300000000E-01  0.00000E+00  9.000E+00
       3     1     1     2   502     0  3.716093950E+01 -2.991969043E+01  5.239764449E+00  4.799821279E+01  5.000000000E-01  0.00000E+00  9.000E+00
      21     1     1     2   511   501  2.427149343E+01 -1.734384991E+01 -5.161055891E+01  5.961177999E+01  5.993750138E-06  0.00000E+00  9.000E+00
</event>
<event>
      8  10001  2.22156E-02  1.80903E+01 -1.00000E+00  1.74668E-01
       1    -1     0     0   501     0  0.000000000E+00  0.000000000E+00  1.003722646E+03  1.003722646E+03  0.000000000E+00  0.00000E+00  9.000E+00
       2    -1     0     0   502     0  0.000000000E+00  0.000000000E+00 -1.607745294E+01  1.607745294E+01  0.000000000E+00  0.00000E+00  9.000E+00
      23     2     1     2     0     0  2.165444499E+01 -2.344922658E+01  1.392297814E+02  1.694667064E+02  9.118800000E+01  0.00000E+00  9.000E+00
     -13     1     3     3     0     0  5.176422961E+01 -3.354641193E+01  1.109421450E+02  1.269372599E+02  1.057000000E-01  0.00000E+00  9.000E+00
      13     1     3     3     0     0 -3.010978463E+01  1.009718535E+01  2.828763633E+01  4.252944655E+01  1.057000000E-01  0.00000E+00  9.000E+00
       1     1     1     2   511     0  2.587382718E-01  1.119007216E-01  1.714295944E+01  1.714845258E+01  3.300000000E-01  0.00000E+00  9.000E+00
       2     1     1     2   502     0 -2.936415660E+01  8.051759043E+00  7.177830842E+02  7.184286669E+02  3.300000000E-01  0.00000E+00  9.000E+00
      21     1     1     2   501   511  7.450973344E+00  1.528556682E+01  1.134893684E+02  1.147562734E+02  1.907348633E-06  0.00000E+00  9.000E+00
</event>
<event>
      8  10001  1.06708E-02  4.89440E+02 -1.00000E+00  1.00626E-01
      -2    -1     0     0     0   501  0.000000000E+00  0.000000000E+00  1.009613583E+02  1.009613583E+02  0.000000000E+00  0.00000E+00  9.000E+00
       2    -1     0     0   502     0  0.000000000E+00  0.000000000E+00 -2.129689780E+03  2.129689780E+03  0.000000000E+00  0.00000E+00  9.000E+00
      23     2     1     2     0     0  3.886699848E+01  1.653810198E+02 -8.286809305E+01  2.098663801E+02  9.118800000E+01  0.00000E+00  9.000E+00
     -13     1     3     3     0     0  5.212606860E+01  1.642526003E+02 -5.828999407E+01  1.819169544E+02  1.057000000E-01  0.00000E+00  9.000E+00
      13     1     3     3     0     0 -1.325907012E+01  1.128419540E+00 -2.457809898E+01  2.794942563E+01  1.057000000E-01  0.00000E+00  9.000E+00
      -1     1     1     2     0   511 -7.434008593E+01  1.463804502E+01 -3.993519463E+01  8.564840575E+01  3.300000000E-01  0.00000E+00  9.000E+00
       1     1     1     2   502     0 -9.855388439E+01 -1.752172141E+01 -1.002277109E+03  1.007263317E+03  3.300000000E-01  0.00000E+00  9.000E+00
      21     1     1     2   511   501  1.340269718E+02 -1.624973434E+02 -9.036480251E+02  9.278730350E+02  2.642899792E-05  0.00000E+00  9.000E+00
</event>
<event>
      8  10001  1.18660E-02  8.74031E+01 -1.00000E+00  1.29013E-01
      -2    -1     0     0     0   501  0.000000000E+00  0.000000000E+00  4.610613737E+01  4.610613737E+01  0.000000000E+00  0.00000E+00  9.000E+00
      -3    -1     0     0     0   502  0.000000000E+00  0.000000000E+00 -3.892890592E+02  3.892890592E+02  0.000000000E+00  0.00000E+00  9.000E+00
      23     2     1     2     0     0 -4.372151595E+00  2.736570672E+00 -9.636254723E+01  1.327689587E+02  9.118800000E+01  0.00000E+00  9.000E+00
     -13     1     3     3     0     0  4.049649407E+01  1.263538325E+01 -6.314382812E+01  7.607084293E+01  1.057000000E-01  0.00000E+00  9.000E+00
      13     1     3     3     0     0 -4.486864567E+01 -9.898812581E+00 -3.321871911E+01  5.669811572E+01  1.057000000E-01  0.00000E+00  9.000E+00
      -1     1     1     2     0   501  4.388588460E+01 -1.262142477E+01 -1.903820984E+02  1.957823371E+02  3.300000000E-01  0.00000E+00  9.000E+00
      -4     1     1     2     0   511 -4.562565753E+01  5.801247563E+00 -7.437470065E+01  8.745971184E+01  1.500000000E+00  0.00000E+00  9.000E+00
      21     1     1     2   511   502  6.111924522E+00  4.083606534E+00  1.793642440E+01  1.938418902E+01  1.430511475E-06  0.00000E+00  9.000E+00
</event>
<event>
      8  10001  1.69816E-02  3.37071E+01 -1.00000E+00  1.53142E-01
      -2    -1     0     0     0   501  0.000000000E+00  0.000000000E+00  4.742434705E+02  4.742434705E+02  0.000000000E+00  0.00000E+00  9.000E+00
      -1    -1     0     0     0   502  0.000000000E+00  0.000000000E+00 -1.361760539E+01  1.361760539E+01  0.000000000E+00  0.00000E+00  9.000E+00
      23     2     1     2     0     0  1.951760147E+01 -2.433989087E+01  2.336000748E+02  2.527006398E+02  9.118800000E+01  0.00000E+00  9.000E+00
     -13     1     3     3     0     0  5.197025676E+01 -2.188991056E+01  1.906348833E+02  1.988007688E+02  1.057000000E-01  0.00000E+00  9.000E+00
      13     1     3     3     0     0 -3.245265529E+01 -2.449980304E+00  4.296519153E+01  5.389987101E+01  1.057000000E-01  0.00000E+00  9.000E+00
      -2     1     1     2     0   501 -2.761005034E+01  1.788677707E+01  1.309655348E+02  1.350345581E+02  3.300000000E-01  0.00000E+00  9.000E+00
      -1     1     1     2     0   512  3.077410422E+00 -2.109067519E+00  1.970763832E-01  3.750514606E+00  3.300000000E-01  0.00000E+00  9.000E+00
      21     1     1     2   512   502  5.015038446E+00  8.562181319E+00  9.586317914E+01  9.637536342E+01  1.348699152E-06  0.00000E+00  9.000E+00
</event>
<event>
      8  10001  2.27074E-02  4.13494E+01 -1.00000E+00  1.47215E-01
      -2    -1     0     0     0   501  0.000000000E+00  0.000000000E+00  1.615194750E+01  1.615194750E+01  0.000000000E+00  0.00000E+00  9.000E+00
       2    -1     0     0   502     0  0.000000000E+00  0.000000000E+00 -5.761537016E+02  5.761537016E+02  0.000000000E+00  0.00000E+00  9.000E+00
      23     2     1     2     0     0 -1.787466624E+01  4.365845528E+01 -2.298032063E+02  2.516949133E+02  9.118800000E+01  0.00000E+00  9.000E+00
     -13     1     3     3     0     0 -2.768699951E+01  5.302298556E+01 -2.304782516E+02  2.381139277E+02  1.057000000E-01  0.00000E+00  9.000E+00
      13     1     3     3     0     0  9.812333266E+00 -9.364530280E+00  6.750452716E-01  1.358098561E+01  1.057000000E-01  0.00000E+00  9.000E+00
      -2     1     1     2     0   501  7.165111800E+00 -4.362069995E+01 -2.938018082E+02  2.971089290E+02  3.300000000E-01  0.00000E+00  9.000E+00
       2     1     1     2   511     0 -7.172737434E-01  4.356157450E+00 -2.870312088E+01  2.904253153E+01  3.300000000E-01  0.00000E+00  9.000E+00
      21     1     1     2   502   511  1.142682818E+01 -4.393912779E+00 -7.693618669E+00  1.445927523E+01  7.952251473E-07  0.00000E+00  9.000E+00
</event>
<event>
      8  10001  1.57135E-02  4.06248E+01 -1.00000E+00  1.47709E-01
      21    -1     0     0   501   512  0.000000000E+00  0.000000000E+00  5.298929729E+02  5.298929729E+02  0.000000000E+00  0.00000E+00  9.000E+00
      -2    -1     0     0     0   502  0.000000000E+00  0.000000000E+00 -2.732991766E+02  2.732991766E+02  0.000000000E+00  0.00000E+00  9.000E+00
      23     2     1     2     0     0 -1.164532070E+02 -6.106308330E+01  3.768094708E+02  4.093784047E+02  9.118800000E+01  0.00000E+00  9.000E+00
     -13     1     3     3     0     0 -6.846118364E+01 -3.921217489E+01  3.285714067E+02  3.379108001E+02  1.057000000E-01  0.00000E+00  9.000E+00
      13     1     3     3     0     0 -4.799202338E+01 -2.185090842E+01  4.823806414E+01  7.146760463E+01  1.057000000E-01  0.00000E+00  9.000E+00
       3     1     1     2   501     0  2.354205367E+01  4.002536006E-01  3.653218069E+01  4.346537380E+01  5.000000000E-01  0.00000E+00  9.000E+00
      -2     1     1     2     0   502  1.333705388E+02  5.700415613E+01 -2.268906018E+02  2.692891170E+02  3.300000000E-01  0.00000E+00  9.000E+00
      -3     1     1     2     0   512 -4.045938545E+01  3.658673573E+00  7.014274659E+01  8.105925402E+01  5.000000000E-01  0.00000E+00  9.000E+00
</event>
<event>
      8  10001  1.88883E-02  2.70578E+01 -1.00000E+00  1.60089E-01
       2    -1     0     0   501     0  0.000000000E+00  0.000000000E+00  3.089092300E+02  3.089092300E+02  0.000000000E+00  0.00000E+00  9.000E+00
      -4    -1     0     0     0   502  0.000000000E+00  0.000000000E+00 -8.326660238E+01  8.326660238E+01  0.000000000E+00  0.00000E+00  9.000E+00
      23     2     1     2     0     0  6.005636756E+01  3.421199597E+01  2.599022091E+02  2.839747129E+02  9.118800000E+01  0.00000E+00  9.000E+00
     -13     1     3     3     0     0  2.725377615E+01  3.877756593E+01  2.414585575E+02  2.460664831E+02  1.057000000E-01  0.00000E+00  9.000E+00
      13     1     3     3     0     0  3.280259141E+01 -4.565569953E+00  1.844365153E+01  3.790822980E+01  1.057000000E-01  0.00000E+00  9.000E+00
       2     1     1     2   501     0 -5.122224532E+01 -2.272427204E+01 -5.585888407E+01  7.912290936E+01  3.300000000E-01  0.00000E+00  9.000E+00
      -4     1     1     2     0   511 -8.720758972E-01 -4.553796632E-01 -1.454288084E+00  2.309294447E+00  1.500000000E+00  0.00000E+00  9.000E+00
      21     1     1     2   511   502 -7.962046345E+00 -1.103234427E+01  2.305359068E+01  2.676891566E+01  3.371747881E-07  0.00000E+00  9.000E+00
</event>
<event>
      8  10001  1.06646E-02  2.04519E+02 -1.00000E+00  1.13212E-01
       4    -1     0     0   501     0  0.000000000E+00  0.000000000E+00  9.253081438E+02  9.253081438E+02  0.000000000E+00  0.00000E+00  9.000E+00
       2    -1     0     0   502     0  0.000000000E+00  0.000000000E+00 -7.218122060E+01  7.218122060E+01  0.000000000E+00  0.00000E+00  9.000E+00
      23     2     1     2     0     0  5.382093427E+00 -1.196047215E+02  4.091278358E+02  4.359301478E+02  9.118800000E+01  0.00000E+00  9.000E+00
     -13     1     3     3     0     0  2.793669177E+01 -5.504758303E+01  3.061710992E+02  3.123322723E+02  1.057000000E-01  0.00000E+00  9.000E+00
      13     1     3     3     0     0 -2.255459835E+01 -6.455713849E+01  1.029567366E+02  1.235978755E+02  1.057000000E-01  0.00000E+00  9.000E+00
       4     1     1     2   512     0 -3.129473105E+01  9.844089601E+00  3.371387195E+02  3.387344572E+02  1.500000000E+00  0.00000E+00  9.000E+00
       2     1     1     2   502     0  5.223090771E+01  1.239744421E+02  1.283970352E+02  1.859667647E+02  3.300000000E-01  0.00000E+00  9.000E+00
      21     1     1     2   501   512 -2.631827009E+01 -1.421381017E+01 -2.153666733E+01  3.685799479E+01  2.372234910E-06  0.00000E+00  9.000E+00
</event>
<event>
      8  10001  5.94803E-02  4.73653E+01 -1.00000E+00  1.43529E-01
      -2    -1     0     0     0   501  0.000000000E+00  0.000000000E+00  1.248923125E+02  1.248923125E+02  0.000000000E+00  0.00000E+00  9.000E+00
       2    -1     0     0   502     0  0.000000000E+00  0.000000000E+00 -1.272665784E+02  1.272665784E+02  0.000000000E+00  0.00000E+00  9.000E+00
      23     2     1     2     0     0  2.606559315E+01  2.283245188E+01 -9.039596680E+01  1.329940531E+02  9.118800000E+01  0.00000E+00  9.000E+00
     -13     1     3     3     0     0  4.554502161E+01 -1.606567192E+01 -2.481981275E+01  5.429999158E+01  1.057000000E-01  0.00000E+00  9.000E+00
      13     1     3     3     0     0 -1.947942846E+01  3.889812379E+01 -6.557615405E+01  7.869406153E+01  1.057000000E-01  0.00000E+00  9.000E+00
      -2     1     1     2     0   501 -2.900553775E+01 -2.990178933E+01  3.634464666E+01  5.528544534E+01  3.300000000E-01  0.00000E+00  9.000E+00
       2     1     1     2   511     0  8.323143531E+00  1.791042570E+01  1.374860778E+01  2.406639115E+01  3.300000000E-01  0.00000E+00  9.000E+00
      21     1     1     2   502   511 -5.383198929E+00 -1.084108824E+01  3.792844644E+01  3.981300132E+01  1.168007728E-06  0.00000E+00  9.000E+00
</event>
<event>
      8  10001  1.15461E-02  6.51991E+01 -1.00000E+00  1.35563E-01
       4    -1     0     0   501     0  0.000000000E+00  0.000000000E+00  4.690862665E+02  4.690862665E+02  0.000000000E+00  0.00000E+00  9.000E+00
       1    -1     0     0   502     0  0.000000000E+00  0.000000000E+00 -4.788817652E+01  4.788817652E+01  0.000000000E+00  0.00000E+00  9.000E+00
      23     2     1     2     0     0  1.127904343E+01  3.359060802E+01  1.432010928E+02  1.734282275E+02  9.118800000E+01  0.00000E+00  9.000E+00
     -13     1     3     3     0     0  1.652537558E+01 -2.954280830E+01  4.079152395E+01  5.300778395E+01  1.057000000E-01  0.00000E+00  9.000E+00
      13     1     3     3     0     0 -5.246332152E+00  6.313341633E+01  1.024095688E+02  1.204204435E+02  1.057000000E-01  0.00000E+00  9.000E+00
       3     1     1     2   501     0 -5.606918658E+01  8.924958259E-01  6.962447055E+00  5.650907805E+01  5.000000000E-01  0.00000E+00  9.000E+00
       2     1     1     2   512     0  5.121331122E+01 -3.770288609E+01  1.198133354E+02  1.356453283E+02  3.300000000E-01  0.00000E+00  9.000E+00
      21     1     1     2   502   512 -6.423168071E+00  3.219782245E+00  1.512212148E+02  1.513918092E+02  3.303624740E-06  0.00000E+00  9.000E+00
</event>
<event>
      8  10001  1.07365E-02  1.63021E+02 -1.00000E+00  1.17028E-01
       2    -1     0     0   501     0  0.000000000E+00  0.000000000E+00  1.879529766E+03  1.879529766E+03  0.000000000E+00  0.00000E+00  9.000E+00
      -1    -1     0     0     0   502  0.000000000E+00  0.000000000E+00 -2.000565272E+01  2.000565272E+01  0.000000000E+00  0.00000E+00  9.000E+00
      23     2     1     2     0     0  2.094359348E+00  4.580682820E+01  3.617400722E+02  3.758640486E+02  9.118800000E+01  0.00000E+00  9.000E+00
     -13     1     3     3     0     0  1.618892036E+01  1.279735252E+01  1.117817462E+01  2.346947239E+01  1.057000000E-01  0.00000E+00  9.000E+00
      13     1     3     3     0     0 -1.409456101E+01  3.300947569E+01  3.505618976E+02  3.523945762E+02  1.057000000E-01  0.00000E+00  9.000E+00
       2     1     1     2   501     0  3.686999422E+01 -9.495444469E+01  5.187731381E+02  5.286789392E+02  3.300000000E-01  0.00000E+00  9.000E+00
      -1     1     1     2     0   511 -5.734795490E+01  3.698739493E+01  1.405419001E+02  1.562337668E+02  3.300000000E-01  0.00000E+00  9.000E+00
      21     1     1     2   511   502  1.838360133E+01  1.216022156E+01  8.384690029E+02  8.387586641E+02  0.000000000E+00  0.00000E+00  9.000E+00
</event>
<event>
      8  10001  1.08788E-02  2.21151E+02 -1.00000E+00  1.11955E-01
      -2    -1     0     0     0   501  0.000000000E+00  0.000000000E+00  1.006850010E+02  1.006850010E+02  0.000000000E+00  0.00000E+00  9.000E+00
       1    -1     0     0   502     0  0.000000000E+00  0.000000000E+00 -3.626097415E+02  3.626097415E+02  0.000000000E+00  0.00000E+00  9.000E+00
      23     2     1     2     0     0  3.193832442E+01  3.266208885E+01 -1.490817740E+02  1.806308260E+02  9.118800000E+01  0.00000E+00  9.000E+00
     -13     1     3     3     0     0  5.784167225E+00  4.318090480E+01 -1.900009989E+01  4.752959182E+01  1.057000000E-01  0.00000E+00  9.000E+00
      13     1     3     3     0     0  2.615415720E+01 -1.051881596E+01 -1.300816741E+02  1.331012341E+02  1.057000000E-01  0.00000E+00  9.000E+00
      -2     1     1     2     0   501 -7.623750800E+01 -9.123249002E+01 -1.015733372E+02  1.563738360E+02  3.300000000E-01  0.00000E+00  9.000E+00
       1     1     1     2   512     0  4.090465210E+00  2.535205310E+00 -4.793764541E+01  4.817972519E+01  3.300000000E-01  0.00000E+00  9.000E+00
      21     1     1     2   502   512  4.020871837E+01  5.603519586E+01  3.666801614E+01  7.811035537E+01  1.784161275E-06  0.00000E+00  9.000E+00
</event>
<event>
      8  10001  1.08750E-02  3.80122E+02 -1.00000E+00  1.03969E-01
       1    -1     0     0   501     0  0.000000000E+00  0.000000000E+00  6.462062917E+01  6.462062917E+01  0.000000000E+00  0.00000E+00  9.000E+00
       2    -1     0     0   502     0  0.000000000E+00  0.000000000E+00 -2.239852408E+03  2.239852408E+03  0.000000000E+00  0.00000E+00  9.000E+00
      23     2     1     2     0     0 -3.428182368E+01 -5.659296531E+01 -9.382172222E+02  9.449575729E+02  9.118800000E+01  0.00000E+00  9.000E+00
     -13     1     3     3     0     0  2.531462877E+01 -3.138871182E+01 -5.413571257E+02  5.428569152E+02  1.057000000E-01  0.00000E+00  9.000E+00
      13     1     3     3     0     0 -5.959645244E+01 -2.520425349E+01 -3.968600965E+02  4.021006577E+02  1.057000000E-01  0.00000E+00  9.000E+00
       2     1     1     2   511     0 -2.862491683E+01 -5.773609458E+01 -8.358300228E+01  1.055417910E+02  3.300000000E-01  0.00000E+00  9.000E+00
       1     1     1     2   502     0  9.268007403E+01  4.354441005E+01 -4.521397615E+00  1.025000669E+02  3.300000000E-01  0.00000E+00  9.000E+00
      21     1     1     2   501   511 -2.977333352E+01  7.078464984E+01 -1.148910157E+03  1.151473607E+03  4.577636719E-05  0.00000E+00  9.000E+00
</event>
<event>
      8  10001  1.05468E-02  2.98848E+02 -1.00000E+00  1.07368E-01
      -2    -1     0     0     0   501  0.000000000E+00  0.000000000E+00  1.322587027E+02  1.322587027E+02  0.000000000E+00  0.00000E+00  9.000E+00
       2    -1     0     0   502     0  0.000000000E+00  0.000000000E+00 -1.304523109E+03  1.304523109E+03  0.000000000E+00  0.00000E+00  9.000E+00
      23     2     1     2     0     0  1.049359602E+02  2.376775268E+01 -3.569924153E+02  3.838428034E+02  9.118800000E+01  0.00000E+00  9.000E+00
     -13     1     3     3     0     0 -4.809745542E+00  7.429271276E+00 -1.385868459E+02  1.388691929E+02  1.057000000E-01  0.00000E+00  9.000E+00
      13     1     3     3     0     0  1.097457058E+02  1.633848141E+01 -2.184055694E+02  2.449736105E+02  1.057000000E-01  0.00000E+00  9.000E+00
      -1     1     1     2     0   511  1.009210639E+02  5.262402422E+01 -1.776554776E+01  1.151958014E+02  3.300000000E-01  0.00000E+00  9.000E+00
       1     1     1     2   502     0 -2.729055378E+02 -1.222764106E+02 -2.665200716E+02  4.005770970E+02  3.300000000E-01  0.00000E+00  9.000E+00
      21     1     1     2   511   501  6.704851363E+01  4.588463368E+01 -5.309863717E+02  5.371661100E+02  0.000000000E+00  0.00000E+00  9.000E+00
</event>
<event>
      8  10001  1.07737E-02  7.49725E+02 -1.00000E+00  9.54561E-02
       1    -1     0     0   501     0  0.000000000E+00  0.000000000E+00  1.339150857E+03  1.339150857E+03  0.000000000E+00  0.00000E+00  9.000E+00
       2    -1     0     0   502     0  0.000000000E+00  0.000000000E+00 -4.308608868E+02  4.308608868E+02  0.000000000E+00  0.00000E+00  9.000E+00
      23     2     1     2     0     0  1.415674715E+02 -1.784675941E+02 -3.688334966E+02  4.429959714E+02  9.118800000E+01  0.00000E+00  9.000E+00
     -13     1     3     3     0     0  5.584382434E+01 -1.045195692E+02 -2.610217286E+02  2.866622177E+02  1.057000000E-01  0.00000E+00  9.000E+00
      13     1     3     3     0     0  8.572364713E+01 -7.394802492E+01 -1.078117680E+02  1.563337537E+02  1.057000000E-01  0.00000E+00  9.000E+00
       2     1     1     2   501     0 -1.086279331E+02  5.402161909E+01  2.800909230E+02  3.052366250E+02  3.300000000E-01  0.00000E+00  9.000E+00
       1     1     1     2   511     0  2.212096312E+01 -2.188529597E+01  3.381471600E+01  4.595483769E+01  3.300000000E-01  0.00000E+00  9.000E+00
      21     1     1     2   502   511 -5.506050149E+01  1.463312710E+02  9.632178275E+02  9.758243094E+02  3.236877966E-05  0.00000E+00  9.000E+00
</event>
<event>
      8  10001  1.08349E-02  1.52584E+02 -1.00000E+00  1.18191E-01
       2    -1     0     0   501     0  0.000000000E+00  0.000000000E+00  4.950891127E+01  4.950891127E+01  0.000000000E+00  0.00000E+00  9.000E+00
       1    -1     0     0   502     0  0.000000000E+00  0.000000000E+00 -1.159366198E+03  1.159366198E+03  0.000000000E+00  0.00000E+00  9.000E+00
      23     2     1     2     0     0 -8.305432160E+00  3.982595473E+01 -1.772071271E+02  2.034028125E+02  9.118800000E+01  0.00000E+00  9.000E+00
     -13     1     3     3     0     0  1.159075258E+01  2.723751250E+01 -5.523458817E+00  3.011224671E+01  1.057000000E-01  0.00000E+00  9.000E+00
      13     1     3     3     0     0 -1.989618474E+01  1.258844224E+01 -1.716836683E+02  1.732905658E+02  1.057000000E-01  0.00000E+00  9.000E+00
       1     1     1     2   512     0 -2.020380686E+01  8.340262256E+01 -2.470709194E+02  2.615498793E+02  3.300000000E-01  0.00000E+00  9.000E+00
       2     1     1     2   502     0  3.879782415E+01 -1.196087764E+02 -1.066242534E+02  1.648647047E+02  3.300000000E-01  0.00000E+00  9.000E+00
      21     1     1     2   501   512 -1.028858513E+01 -3.619800911E+00 -5.789549870E+02  5.790577130E+02  7.629394531E-06  0.00000E+00  9.000E+00
</event>
<event>
      8  10001  1.05921E-02  3.07485E+02 -1.00000E+00  1.06954E-01
      -4    -1     0     0     0   501  0.000000000E+00  0.000000000E+00  7.439936622E+02  7.439936622E+02  0.000000000E+00  0.00000E+00  9.000E+00
      -2    -1     0     0     0   502  0.000000000E+00  0.000000000E+00 -1.931286583E+02  1.931286583E+02  0.000000000E+00  0.00000E+00  9.000E+00
      23     2     1     2     0     0 -3.001897359E+00  2.668897364E+01  3.680943065E+02  3.801709912E+02  9.118800000E+01  0.00000E+00  9.000E+00
     -13     1     3     3     0     0 -4.977598381E+00 -1.450802161E+01  3.011555212E+02  3.015458809E+02  1.057000000E-01  0.00000E+00  9.000E+00
      13     1     3     3     0     0  1.975701022E+00  4.119699525E+01  6.693878532E+01  7.862511027E+01  1.057000000E-01  0.00000E+00  9.000E+00
      -4     1     1     2     0   501 -1.075861870E+02  4.756969436E+01 -6.511708645E+01  1.344624424E+02  1.500000000E+00  0.00000E+00  9.000E+00
      -2     1     1     2     0   511  8.249990139E+01 -1.477917380E+01 -6.291602683E+01  1.048007301E+02  3.300000000E-01  0.00000E+00  9.000E+00
      21     1     1     2   511   502  2.808818300E+01 -5.947949420E+01  3.108038107E+02  3.176881568E+02  3.814697266E-06  0.00000E+00  9.000E+00
</event>
<event>
      8  10001  1.61727E-02  5.91535E+01 -1.00000E+00  1.37891E-01
      -2    -1     0     0     0   501  0.000000000E+00  0.000000000E+00  6.347662761E+01  6.347662761E+01  0.000000000E+00  0.00000E+00  9.000E+00
       2    -1     0     0   502     0  0.000000000E+00  0.000000000E+00 -5.093300167E+02  5.093300167E+02  0.000000000E+00  0.00000E+00  9.000E+00
      23     2     1     2     0     0 -1.209486871E+02 -4.187150999E+01 -9.160330027E+01  1.819016883E+02  9.118800000E+01  0.00000E+00  9.000E+00
     -13     1     3     3     0     0 -1.027646849E+02 -4.558034861E+00 -2.915674947E+01  1.069181152E+02  1.057000000E-01  0.00000E+00  9.000E+00
      13     1     3     3     0     0 -1.818400218E+01 -3.731347513E+01 -6.244655080E+01  7.498357314E+01  1.057000000E-01  0.00000E+00  9.000E+00
      -2     1     1     2     0   501  1.063867139E+02  2.934282571E+01 -3.502432299E+02  3.672186859E+02  3.300000000E-01  0.00000E+00  9.000E+00
       2     1     1     2   512     0 -1.688522403E-01  1.218989329E-01 -4.405469978E+00  4.422718186E+00  3.300000000E-01  0.00000E+00  9.000E+00
      21     1     1     2   502   512  1.473082544E+01  1.240678535E+01  3.986110080E-01  1.926355190E+01  5.458281311E-07  0.00000E+00  9.000E+00
</event>
<event>
      8  10001  3.36344E-01  1.21808E+02 -1.00000E+00  1.22335E-01
       2    -1     0     0   501     0  0.000000000E+00  0.000000000E+00  1.694028572E+03  1.694028572E+03  0.000000000E+00  0.00000E+00  9.000E+00
       4    -1     0     0   502     0  0.000000000E+00  0.000000000E+00 -4.246276262E+01  4.246276262E+01  0.000000000E+00  0.00000E+00  9.000E+00
      23     2     1     2     0     0  1.540643910E+01 -1.183162631E+01  1.287610236E+03  1.290981300E+03  9.118800000E+01  0.00000E+00  9.000E+00
     -13     1     3     3     0     0 -1.069727472E+01 -4.769122508E+01  6.803857730E+02  6.821390590E+02  1.057000000E-01  0.00000E+00  9.000E+00
      13     1     3     3     0     0  2.610371382E+01  3.585959877E+01  6.072244635E+02  6.088422414E+02  1.057000000E-01  0.00000E+00  9.000E+00
       2     1     1     2   511     0 -4.735380330E+00 -2.238780792E+00  2.896908745E+00  5.994743245E+00  3.300000000E-01  0.00000E+00  9.000E+00
       4     1     1     2   502     0 -2.580229964E+00  6.338889897E+00 -3.883656665E+01  3.946350239E+01  1.500000000E+00  0.00000E+00  9.000E+00
      21     1     1     2   501   511 -8.090828806E+00  7.731517202E+00  3.998952311E+02  4.000517888E+02  9.344061824E-06  0.00000E+00  9.000E+00
</event>
<event>
      8  10001  1.12556E-02  1.98583E+02 -1.00000E+00  1.13694E-01
      -1    -1     0     0     0   501  0.000000000E+00  0.000000000E+00  6.447904222E+02  6.447904222E+02  0.000000000E+00  0.00000E+00  9.000E+00
      -4    -1     0     0     0   502  0.000000000E+00  0.000000000E+00 -3.531736274E+02  3.531736274E+02  0.000000000E+00  0.00000E+00  9.000E+00
      23     2     1     2     0     0 -1.248177164E+01 -9.290708187E+01  4.381929299E+02  4.572918276E+02  9.118800000E+01  0.00000E+00  9.000E+00
     -13     1     3     3     0     0  5.428636711E+00 -8.101308708E+01  1.716701169E+02  1.899032137E+02  1.057000000E-01  0.00000E+00  9.000E+00
      13     1     3     3     0     0 -1.791040835E+01 -1.189399479E+01  2.665228130E+02  2.673886139E+02  1.057000000E-01  0.00000E+00  9.000E+00
      -2     1     1     2     0   501 -3.736058743E+01  8.096455507E+01 -3.172661690E+02  3.295588014E+02  3.300000000E-01  0.00000E+00  9.000E+00
      -3     1     1     2     0   511  3.911602901E+01  4.346002633E+00 -5.558807236E-01  3.936382181E+01  5.000000000E-01  0.00000E+00  9.000E+00
      21     1     1     2   511   502  1.072633007E+01  7.596524168E+00  1.712459147E+02  1.717495987E+02  1.907348633E-06  0.00000E+00  9.000E+00
</event>
<event>
      8  10001  1.14611E-02  1.46792E+02 -1.00000E+00  1.18882E-01
      -2    -1     0     0     0   501  0.000000000E+00  0.000000000E+00  1.048804199E+02  1.048804199E+02  0.000000000E+00  0.00000E+00  9.000E+00
       2    -1     0     0   502     0  0.000000000E+00  0.000000000E+00 -2.500377538E+02  2.500377538E+02  0.000000000E+00  0.00000E+00  9.000E+00
      23     2     1     2     0     0 -2.820453866E+01 -4.049433584E+01 -1.079393142E+02  1.496710865E+02  9.118800000E+01  0.00000E+00  9.000E+00
     -13     1     3     3     0     0 -5.644796093E+01 -4.432395315E+01 -5.844672084E+01  9.255817341E+01  1.057000000E-01  0.00000E+00  9.000E+00
      13     1     3     3     0     0  2.824342227E+01  3.829617310E+00 -4.949259335E+01  5.711291307E+01  1.057000000E-01  0.00000E+00  9.000E+00
      -1     1     1     2     0   501  1.745472552E+01  4.653272400E+01  1.546998327E+01  5.205181196E+01  3.300000000E-01  0.00000E+00  9.000E+00
       1     1     1     2   512     0  3.344136272E+01 -2.457285813E+01 -9.388146354E+01  1.026449618E+02  3.300000000E-01  0.00000E+00  9.000E+00
      21     1     1     2   502   512 -2.269154958E+01  1.853446998E+01  4.119346058E+01  5.055031349E+01  1.168007728E-06  0.00000E+00  9.000E+00
</event>
<event>
      8  10001  1.09029E-02  2.26288E+02 -1.00000E+00  1.11591E-01
       2    -1     0     0   501     0  0.000000000E+00  0.000000000E+00  3.522622466E+03  3.522622466E+03  0.000000000E+00  0.00000E+00  9.000E+00
      21    -1     0     0   511   502  0.000000000E+00  0.000000000E+00 -6.295850581E+02  6.295850581E+02  0.000000000E+00  0.00000E+00  9.000E+00
      23     2     1     2     0     0 -1.779830693E+02 -1.434833251E+01  7.701243966E+02  7.957956302E+02  9.118800000E+01  0.00000E+00  9.000E+00
     -13     1     3     3     0     0 -1.231030741E+02 -3.721302244E+01  6.391381357E+02  6.519484209E+02  1.057000000E-01  0.00000E+00  9.000E+00
      13     1     3     3     0     0 -5.487999521E+01  2.286468993E+01  1.309862609E+02  1.438472094E+02  1.057000000E-01  0.00000E+00  9.000E+00
       1     1     1     2   501     0  1.109014524E+02 -1.603871817E+02  2.206753189E+03  2.215351648E+03  3.300000000E-01  0.00000E+00  9.000E+00
      -3     1     1     2     0   502  9.582098109E+01 -4.971951081E+01  5.017684648E+02  5.132499707E+02  5.000000000E-01  0.00000E+00  9.000E+00
       4     1     1     2   511     0 -2.873936422E+01  2.244550250E+02 -5.856086423E+02  6.278102749E+02  1.500000000E+00  0.00000E+00  9.000E+00
</event>
<event>
      8  10001  5.78957E-02  1.10487E+01 -1.00000E+00  1.96775E-01
       4    -1     0     0   501     0  0.000000000E+00  0.000000000E+00  1.627003275E+01  1.627003275E+01  0.000000000E+00  0.00000E+00  9.000E+00
       2    -1     0     0   502     0  0.000000000E+00  0.000000000E+00 -5.896235408E+02  5.896235408E+02  0.000000000E+00  0.00000E+00  9.000E+00
      23     2     1     2     0     0  7.186981105E+00 -6.422526379E+01 -4.584785557E+02  4.719050483E+02  9.118800000E+01  0.00000E+00  9.000E+00
     -13     1     3     3     0     0  7.080303350E+00 -4.410884015E+01 -4.460007251E+02  4.482325049E+02  1.057000000E-01  0.00000E+00  9.000E+00
      13     1     3     3     0     0  1.066777552E-01 -2.011642364E+01 -1.247783054E+01  2.367254333E+01  1.057000000E-01  0.00000E+00  9.000E+00
       4     1     1     2   511     0  1.065526264E+00  5.827102334E-01 -1.417942529E+00  2.394881720E+00  1.500000000E+00  0.00000E+00  9.000E+00
       2     1     1     2   502     0 -1.995507402E+00  5.830407717E+01 -1.017088738E+02  1.172525111E+02  3.300000000E-01  0.00000E+00  9.000E+00
      21     1     1     2   501   511 -6.256999967E+00  5.338476388E+00 -1.174813612E+01  1.434113248E+01  7.348554138E-07  0.00000E+00  9.000E+00
</event>
<event>
      8  10001  1.81335E-02  2.74632E+01 -1.00000E+00  1.59599E-01
       1    -1     0     0   501     0  0.000000000E+00  0.000000000E+00  3.345255003E+02  3.345255003E+02  0.000000000E+00  0.00000E+00  9.000E+00
      -1    -1     0     0     0   502  0.000000000E+00  0.000000000E+00 -2.161425874E+01  2.161425874E+01  0.000000000E+00  0.00000E+00  9.000E+00
      23     2     1     2     0     0 -1.406803490E+01  2.827992880E+01  2.454430122E+02  2.637331749E+02  9.118800000E+01  0.00000E+00  9.000E+00
     -13     1     3     3     0     0 -3.998232919E+01  1.955132162E+01  2.255971251E+02  2.299454606E+02  1.057000000E-01  0.00000E+00  9.000E+00
      13     1     3     3     0     0  2.591429429E+01  8.728607178E+00  1.984588707E+01  3.378771431E+01  1.057000000E-01  0.00000E+00  9.000E+00
       2     1     1     2   511     0 -1.106330075E+01 -1.832222207E+01  3.089441564E+01  3.758555923E+01  3.300000000E-01  0.00000E+00  9.000E+00
      -2     1     1     2     0   502  2.291925494E+01 -3.969601046E+00  4.093961679E+01  4.708727113E+01  3.300000000E-01  0.00000E+00  9.000E+00
      21     1     1     2   501   511  2.212080711E+00 -5.988105684E+00 -4.365803055E+00  7.733753750E+00  7.929882226E-07  0.00000E+00  9.000E+00
</event>
<event>
      8  10001  1.12948E-02  2.14407E+02 -1.00000E+00  1.12450E-01
       2    -1     0     0   501     0  0.000000000E+00  0.000000000E+00  3.342409083E+02  3.342409083E+02  0.000000000E+00  0.00000E+00  9.000E+00
      -1    -1     0     0     0   502  0.000000000E+00  0.000000000E+00 -2.750655211E+02  2.750655211E+02  0.000000000E+00  0.00000E+00  9.000E+00
      23     2     1     2     0     0  4.581339282E+01  1.042265892E+02 -1.381200500E+02  2.008841666E+02  9.118800000E+01  0.00000E+00  9.000E+00
     -13     1     3     3     0     0  2.442530883E+01  1.068603738E+02 -1.415836016E+02  1.790577075E+02  1.057000000E-01  0.00000E+00  9.000E+00
      13     1     3     3     0     0  2.138808400E+01 -2.633784579E+00  3.463551594E+00  2.182645918E+01  1.057000000E-01  0.00000E+00  9.000E+00
       2     1     1     2   501     0  1.495072742E+01 -6.121132956E+01  2.418661080E+02  2.499393411E+02  3.300000000E-01  0.00000E+00  9.000E+00
      -1     1     1     2     0   511 -1.448214204E+01 -6.605457925E+00  4.699365867E+01  4.961730916E+01  3.300000000E-01  0.00000E+00  9.000E+00
      21     1     1     2   511   502 -4.628197821E+01 -3.640980171E+01 -9.156432942E+01  1.088656125E+02  6.877043296E-06  0.00000E+00  9.000E+00
</event>
<event>
      8  10001  1.05281E-02  5.34519E+02 -1.00000E+00  9.95120E-02
       2    -1     0     0   501     0  0.000000000E+00  0.000000000E+00  2.848222816E+03  2.848222816E+03  0.000000000E+00  0.00000E+00  9.000E+00
       2    -1     0     0   502     0  0.000000000E+00  0.000000000E+00 -3.846148317E+02  3.846148317E+02  0.000000000E+00  0.00000E+00  9.000E+00
      23     2     1     2     0     0 -1.541922780E+02 -1.073703231E+02 -1.903430033E+02  2.825762819E+02  9.118800000E+01  0.00000E+00  9.000E+00
     -13     1     3     3     0     0 -1.242272869E+02 -1.141906132E+02 -1.238030478E+02  2.092823948E+02  1.057000000E-01  0.00000E+00  9.000E+00
      13     1     3     3     0     0 -2.996499111E+01  6.820290073E+00 -6.653995550E+01  7.329388718E+01  1.057000000E-01  0.00000E+00  9.000E+00
       2     1     1     2   501     0 -1.229043421E+02 -1.940648561E+02  1.511680047E+03  1.529033459E+03  3.300000000E-01  0.00000E+00  9.000E+00
       2     1     1     2   512     0  2.616932679E+02  3.123467222E+02  1.248510212E+03  1.313324674E+03  3.300000000E-01  0.00000E+00  9.000E+00
      21     1     1     2   502   512  1.540335221E+01 -1.091154300E+01 -1.062392709E+02  1.079032331E+02  2.697398305E-06  0.00000E+00  9.000E+00
</event>
<event>
      8  10001  2.22076E-02  5.10641E+01 -1.00000E+00  1.41570E-01
      -2    -1     0     0     0   501  0.000000000E+00  0.000000000E+00  1.014026986E+01  1.014026986E+01  0.000000000E+00  0.00000E+00  9.000E+00
       2    -1     0     0   502     0  0.000000000E+00  0.000000000E+00 -7.766539800E+02  7.766539800E+02  0.000000000E+00  0.00000E+00  9.000E+00
      23     2     1     2     0     0  4.918105721E+01 -3.726886985E+01 -4.601043672E+02  4.730951544E+02  9.118800000E+01  0.00000E+00  9.000E+00
     -13     1     3     3     0     0 -4.102795662E+00  3.281877878E+00  2.394162219E+00  5.774672274E+00  1.057000000E-01  0.00000E+00  9.000E+00
      13     1     3     3     0     0  5.328385287E+01 -4.055074773E+01 -4.624985294E+02  4.673204821E+02  1.057000000E-01  0.00000E+00  9.000E+00
      -2     1     1     2     0   501 -9.527208387E+00  1.289201712E+01 -1.353089946E+02  1.362556594E+02  3.300000000E-01  0.00000E+00  9.000E+00
       2     1     1     2   511     0 -3.175035644E-01  1.997240335E-01 -5.624452190E+00  5.646597262E+00  3.300000000E-01  0.00000E+00  9.000E+00
      21     1     1     2   502   511 -3.933634526E+01  2.417712870E+01 -1.654758961E+02  1.717968388E+02  0.000000000E+00  0.00000E+00  9.000E+00
</event>
<event>
      8  10001  1.12637E-02  9.59021E+01 -1.00000E+00  1.27072E-01
       1    -1     0     0   501     0  0.000000000E+00  0.000000000E+00  9.923700250E+02  9.923700250E+02  0.000000000E+00  0.00000E+00  9.000E+00
      -1    -1     0     0     0   502  0.000000000E+00  0.000000000E+00 -7.411747060E+01  7.411747060E+01  0.000000000E+00  0.00000E+00  9.000E+00
      23     2     1     2     0     0 -1.751608374E+02  2.277022848E+01  1.551443705E+02  2.521603246E+02  9.118800000E+01  0.00000E+00  9.000E+00
     -13     1     3     3     0     0 -1.423715459E+02  5.780296529E+00  6.875744191E+01  1.582108274E+02  1.057000000E-01  0.00000E+00  9.000E+00
      13     1     3     3     0     0 -3.278929146E+01  1.698993195E+01  8.638692856E+01  9.394949719E+01  1.057000000E-01  0.00000E+00  9.000E+00
       2     1     1     2   501     0  1.706086640E+02  1.257996162E+01  4.118746491E+02  4.459892455E+02  3.300000000E-01  0.00000E+00  9.000E+00
      -2     1     1     2     0   512 -1.135232344E+01 -6.689336034E+01  1.587879037E+02  1.726768779E+02  3.300000000E-01  0.00000E+00  9.000E+00
      21     1     1     2   512   502  1.590449683E+01  3.154317024E+01  1.924456311E+02  1.956610476E+02  3.814697266E-06  0.00000E+00  9.000E+00
</event>
<event>
      8  10001  1.06568E-02  2.42810E+02 -1.00000E+00  1.10489E-01
       1    -1     0     0   501     0  0.000000000E+00  0.000000000E+00  4.554872271E+02  4.554872271E+02  0.000000000E+00  0.00000E+00  9.000E+00
       2    -1     0     0   502     0  0.000000000E+00  0.000000000E+00 -2.802539745E+02  2.802539745E+02  0.000000000E+00  0.00000E+00  9.000E+00
      23     2     1     2     0     0 -5.246390641E+00  1.355898468E+01  2.918232145E+02  3.060839927E+02  9.118800000E+01  0.00000E+00  9.000E+00
     -13     1     3     3     0     0 -5.182654128E+00 -1.817150257E+01  2.615394130E+02  2.622211645E+02  1.057000000E-01  0.00000E+00  9.000E+00
      13     1     3     3     0     0 -6.373651274E-02  3.173048725E+01  3.028380155E+01  4.386282813E+01  1.057000000E-01  0.00000E+00  9.000E+00
       2     1     1     2   501     0  1.002001072E+02  1.697830466E+01 -1.719846510E+02  1.997677486E+02  3.300000000E-01  0.00000E+00  9.000E+00
       1     1     1     2   511     0  1.242348655E+01 -4.539510340E+01 -5.687807981E+01  7.382603398E+01  3.300000000E-01  0.00000E+00  9.000E+00
      21     1     1     2   502   511 -1.073772031E+02  1.485781406E+01  1.122727689E+02  1.560634263E+02  4.046097457E-06  0.00000E+00  9.000E+00
</event>
<event>
      8  10001  1.05632E-02  4.51951E+02 -1.00000E+00  1.01656E-01
       1    -1     0     0   501     0  0.000000000E+00  0.000000000E+00  1.677113639E+03  1.677113639E+03  0.000000000E+00  0.00000E+00  9.000E+00
       1    -1     0     0   502     0  0.000000000E+00  0.000000000E+00 -1.227265933E+02  1.227265933E+02  0.000000000E+00  0.00000E+00  9.000E+00
      23     2     1     2     0     0 -1.739160420E+01  8.079559790E+00  6.514563155E+02  6.580868709E+02  9.118800000E+01  0.00000E+00  9.000E+00
     -13     1     3     3     0     0 -2.701314250E+01 -3.466416184E+01  2.155601571E+02  2.199943328E+02  1.057000000E-01  0.00000E+00  9.000E+00
      13     1     3     3     0     0  9.621538294E+00  4.274372163E+01  4.358961585E+02  4.380925380E+02  1.057000000E-01  0.00000E+00  9.000E+00
       1     1     1     2   512     0  6.801719410E+01  9.195416597E+01  1.661250582E+01  1.155767779E+02  3.300000000E-01  0.00000E+00  9.000E+00
       1     1     1     2   502     0 -1.090349299E+02 -9.025985650E+01  3.722244290E+00  1.415959803E+02  3.300000000E-01  0.00000E+00  9.000E+00
      21     1     1     2   501   512  5.840934005E+01 -9.773869265E+00  8.825959803E+02  8.845806034E+02  0.000000000E+00  0.00000E+00  9.000E+00
</event>
<event>
      8  10001  4.03909E-02  5.12948E+02 -1.00000E+00  1.00030E-01
       1    -1     0     0   501     0  0.000000000E+00  0.000000000E+00  1.779137822E+02  1.779137822E+02  0.000000000E+00  0.00000E+00  9.000E+00
       2    -1     0     0   502     0  0.000000000E+00  0.000000000E+00 -1.861024467E+03  1.861024467E+03  0.000000000E+00  0.00000E+00  9.000E+00
      23     2     1     2     0     0  9.841971878E+01  8.595412398E+00  1.474795503E+02  1.995640029E+02  9.118800000E+01  0.00000E+00  9.000E+00
     -13     1     3     3     0     0  1.333098112E+00 -1.927765669E+01  6.898861682E+01  7.164388055E+01  1.057000000E-01  0.00000E+00  9.000E+00
      13     1     3     3     0     0  9.708662067E+01  2.787306909E+01  7.849093347E+01  1.279201223E+02  1.057000000E-01  0.00000E+00  9.000E+00
       2     1     1     2   501     0 -9.311098813E+01 -1.717369187E+01 -7.948002886E+02  8.004200144E+02  3.300000000E-01  0.00000E+00  9.000E+00
       1     1     1     2   511     0 -2.535333322E+00  6.982089934E+00 -7.170108900E+00  1.032941705E+01  3.300000000E-01  0.00000E+00  9.000E+00
      21     1     1     2   502   511 -2.773397321E+00  1.596189536E+00 -1.028619838E+03  1.028624815E+03  2.157918644E-05  0.00000E+00  9.000E+00
</event>
<event>
      8  10001  1.11564E-02  6.98744E+01 -1.00000E+00  1.33954E-01
      -1    -1     0     0     0   501  0.000000000E+00  0.000000000E+00  5.299618672E+02  5.299618672E+02  0.000000000E+00  0.00000E+00  9.000E+00
      -4    -1     0     0     0   502  0.000000000E+00  0.000000000E+00 -1.239458226E+02  1.239458226E+02  0.000000000E+00  0.00000E+00  9.000E+00
      23     2     1     2     0     0 -2.629211640E+01  6.950314924E+01  4.087829805E+02  4.253712962E+02  9.118800000E+01  0.00000E+00  9.000E+00
     -13     1     3     3     0     0  1.500693683E+01  8.862093418E+00  1.041503134E+01  2.030342097E+01  1.057000000E-01  0.00000E+00  9.000E+00
      13     1     3     3     0     0 -4.129905323E+01  6.064105583E+01  3.983679492E+02  4.050678753E+02  1.057000000E-01  0.00000E+00  9.000E+00
      -2     1     1     2     0   501  6.441481757E+01 -5.650287463E+01 -8.059430905E+01  1.176324577E+02  3.300000000E-01  0.00000E+00  9.000E+00
      -3     1     1     2     0   512 -2.763651315E+01 -3.400150961E+00 -3.746666362E+00  2.810027392E+01  5.000000000E-01  0.00000E+00  9.000E+00
      21     1     1     2   512   502 -1.048618803E+01 -9.600123652E+00  8.157403941E+01  8.280366187E+01  0.000000000E+00  0.00000E+00  9.000E+00
</event>
<event>
      8  10001  1.08852E-02  1.12678E+02 -1.00000E+00  1.23838E-01
      -3    -1     0     0     0   501  0.000000000E+00  0.000000000E+00  6.608513640E+01  6.608513640E+01  0.000000000E+00  0.00000E+00  9.000E+00
       2    -1     0     0   502     0  0.000000000E+00  0.000000000E+00 -1.546239622E+03  1.546239622E+03  0.000000000E+00  0.00000E+00  9.000E+00
      23     2     1     2     0     0  1.244029990E+02 -7.475208097E+01 -1.026614294E+02  1.997963969E+02  9.118800000E+01  0.00000E+00  9.000E+00
     -13     1     3     3     0     0  1.006847025E+02 -4.750915457E+01 -1.164748605E+02  1.611239690E+02  1.057000000E-01  0.00000E+00  9.000E+00
      13     1     3     3     0     0  2.371829655E+01 -2.724292640E+01  1.381343107E+01  3.867242791E+01  1.057000000E-01  0.00000E+00  9.000E+00
      -3     1     1     2     0   511  8.238210099E+01  3.727276725E+01 -2.979356686E+02  3.113550744E+02  5.000000000E-01  0.00000E+00  9.000E+00
       2     1     1     2   502     0 -1.677107771E+02  3.612016165E+01 -7.536745631E+02  7.729534441E+02  3.300000000E-01  0.00000E+00  9.000E+00
      21     1     1     2   511   501 -3.907432291E+01  1.359152065E+00 -3.258828246E+02  3.282198430E+02  3.814697266E-06  0.00000E+00  9.000E+00
</event>
<event>
      8  10001  1.13823E-02  1.36246E+02 -1.00000E+00  1.20238E-01
       1    -1     0     0   501     0  0.000000000E+00  0.000000000E+00  2.885480802E+02  2.885480802E+02  0.000000000E+00  0.00000E+00  9.000E+00
      -1    -1     0     0     0   502  0.000000000E+00  0.000000000E+00 -1.777908738E+02  1.777908738E+02  0.000000000E+00  0.00000E+00  9.000E+00
      23     2     1     2     0     0  3.447352699E+01  5.247551569E+01  2.061880836E+02  2.340317948E+02  9.118800000E+01  0.00000E+00  9.000E+00
     -13     1     3     3     0     0  3.472063363E+00 -1.699667988E+01  3.719046241E+00  1.774217654E+01  1.057000000E-01  0.00000E+00  9.000E+00
      13     1     3     3     0     0  3.100146363E+01  6.947219557E+01  2.024690373E+02  2.162896182E+02  1.057000000E-01  0.00000E+00  9.000E+00
       1     1     1     2   511     0 -7.629770235E+01  4.265462360E+01 -1.661524838E+01  8.897714132E+01  3.300000000E-01  0.00000E+00  9.000E+00
      -1     1     1     2     0   502  3.407407550E+01 -4.932828183E+01 -1.072850098E+01  6.090592453E+01  3.300000000E-01  0.00000E+00  9.000E+00
      21     1     1     2   501   511  7.750099864E+00 -4.580185746E+01 -6.808712781E+01  8.242409338E+01  0.000000000E+00  0.00000E+00  9.000E+00
</event>
<event>
      8  10001  2.69023E-02  1.90928E+01 -1.00000E+00  1.72558E-01
       2    -1     0     0   501     0  0.000000000E+00  0.000000000E+00  3.137212053E+02  3.137212053E+02  0.000000000E+00  0.00000E+00  9.000E+00
      -2    -1     0     0     0   502  0.000000000E+00  0.000000000E+00 -2.664726526E+01  2.664726526E+01  0.000000000E+00  0.00000E+00  9.000E+00
      23     2     1     2     0     0 -3.713821198E+01  1.766085667E+01  8.839860764E+01  1.334942614E+02  9.118800000E+01  0.00000E+00  9.000E+00
     -13     1     3     3     0     0 -2.745565042E+01  4.806942890E+01  2.152362636E+01  5.939495264E+01  1.057000000E-01  0.00000E+00  9.000E+00
      13     1     3     3     0     0 -9.682561561E+00 -3.040857223E+01  6.687498128E+01  7.409930875E+01  1.057000000E-01  0.00000E+00  9.000E+00
       2     1     1     2   511     0 -2.562055622E-01  2.973505295E+00  1.504490269E+01  1.534162221E+01  3.300000000E-01  0.00000E+00  9.000E+00
      -2     1     1     2     0   502  2.884279256E+01 -1.771598783E+01  1.772934181E+02  1.804960606E+02  3.300000000E-01  0.00000E+00  9.000E+00
      21     1     1     2   501   511  8.551624979E+00 -2.918374135E+00  6.337011684E+00  1.103652638E+01  9.310543151E-07  0.00000E+00  9.000E+00
</event>
<event>
      8  10001  2.67105E-02  2.65001E+01 -1.00000E+00  1.60782E-01
      -1    -1     0     0     0   501  0.000000000E+00  0.000000000E+00  7.569333660E+02  7.569333660E+02  0.000000000E+00  0.00000E+00  9.000E+00
      21    -1     0     0   511   502  0.000000000E+00  0.000000000E+00 -1.758729530E+01  1.758729530E+01  0.000000000E+00  0.00000E+00  9.000E+00
      23     2     1     2     0     0  2.967483659E+00  9.101388967E+00  4.227076458E+02  4.325374509E+02  9.118800000E+01  0.00000E+00  9.000E+00
     -13     1     3     3     0     0 -1.434267782E+01 -3.134654565E+00  4.039940685E+02  4.042607538E+02  1.057000000E-01  0.00000E+00  9.000E+00
      13     1     3     3     0     0  1.731016148E+01  1.223604353E+01  1.871357728E+01  2.827669710E+01  1.057000000E-01  0.00000E+00  9.000E+00
      -2     1     1     2     0   501 -3.293660130E+01  1.359162225E+01  2.953667780E+02  2.975083097E+02  3.300000000E-01  0.00000E+00  9.000E+00
      -3     1     1     2     0   502  7.912889652E+00 -8.012073644E+00  1.174504839E+01  1.627892221E+01  5.000000000E-01  0.00000E+00  9.000E+00
       4     1     1     2   511     0  2.205622799E+01 -1.468093757E+01  9.526598395E+00  2.819597840E+01  1.500000000E+00  0.00000E+00  9.000E+00
</event>
<event>
      8  10001  2.62624E-02  1.54916E+02 -1.00000E+00  1.17922E-01
       3    -1     0     0   501     0  0.000000000E+00  0.000000000E+00  5.433455089E+01  5.433455089E+01  0.000000000E+00  0.00000E+00  9.000E+00
       2    -1     0     0   502     0  0.000000000E+00  0.000000000E+00 -1.233711603E+03  1.233711603E+03  0.000000000E+00  0.00000E+00  9.000E+00
      23     2     1     2     0     0  1.849386879E+01 -7.655472164E+01 -9.859973692E+02  9.933321257E+02  9.118800000E+01  0.00000E+00  9.000E+00
     -13     1     3     3     0     0  2.249156226E+01 -5.737425450E+01 -2.650982698E+02  2.721668225E+02  1.057000000E-01  0.00000E+00  9.000E+00
      13     1     3     3     0     0 -3.997693477E+00 -1.918046714E+01 -7.208990994E+02  7.211653033E+02  1.057000000E-01  0.00000E+00  9.000E+00
       4     1     1     2   501     0  8.226879694E+00  1.354257013E+01  2.328945139E+01  2.820870967E+01  1.500000000E+00  0.00000E+00  9.000E+00
       1     1     1     2   511     0 -6.141110795E+01  4.123109626E+01 -2.128848818E+02  2.253694950E+02  3.300000000E-01  0.00000E+00  9.000E+00
      21     1     1     2   502   511  3.469035947E+01  2.178105525E+01 -3.784252519E+00  4.113582350E+01  4.287186049E-06  0.00000E+00  9.000E+00
</event>
<event>
      8  10001  1.05543E-02  2.00727E+02 -1.00000E+00  1.13518E-01
       1    -1     0     0   501     0  0.000000000E+00  0.000000000E+00  3.660358739E+02  3.660358739E+02  0.000000000E+00  0.00000E+00  9.000E+00
       2    -1     0     0   502     0  0.000000000E+00  0.000000000E+00 -1.007551368E+03  1.007551368E+03  0.000000000E+00  0.00000E+00  9.000E+00
      23     2     1     2     0     0  2.293979096E+02 -1.785078872E+02 -5.877490785E+02  6.620065689E+02  9.118800000E+01  0.00000E+00  9.000E+00
     -13     1     3     3     0     0  1.009502727E+02 -7.590075268E+01 -3.570002491E+02  3.786833385E+02  1.057000000E-01  0.00000E+00  9.000E+00
      13     1     3     3     0     0  1.284476369E+02 -1.026071345E+02 -2.307488293E+02  2.833232304E+02  1.057000000E-01  0.00000E+00  9.000E+00
       2     1     1     2   512     0  6.643143205E+01 -7.749967896E+01  4.392621896E+01  1.111258611E+02  3.300000000E-01  0.00000E+00  9.000E+00
       1     1     1     2   502     0 -3.239589327E+02  2.497884299E+02  8.305733820E+01  4.174233823E+02  3.300000000E-01  0.00000E+00  9.000E+00
      21     1     1     2   501   512  2.812959109E+01  6.219136326E+00 -1.807499726E+02  1.830314294E+02  3.303624740E-06  0.00000E+00  9.000E+00
</event>
<event>
      8  10001  1.36675E-02  7.44134E+01 -1.00000E+00  1.32526E-01
      21    -1     0     0   501   511  0.000000000E+00  0.000000000E+00  6.525870490E+02  6.525870490E+02  0.000000000E+00  0.00000E+00  9.000E+00
       3    -1     0     0   502     0  0.000000000E+00  0.000000000E+00 -3.399124119E+02  3.399124119E+02  0.000000000E+00  0.00000E+00  9.000E+00
      23     2     1     2     0     0  1.782819566E+01 -9.759150343E+01 -2.049874427E+02  2.453101080E+02  9.118800000E+01  0.00000E+00  9.000E+00
     -13     1     3     3     0     0  2.952670910E+01 -8.181867683E+01 -7.806428027E+01  1.168767105E+02  1.057000000E-01  0.00000E+00  9.000E+00
      13     1     3     3     0     0 -1.169851345E+01 -1.577282660E+01 -1.269231624E+02  1.284333975E+02  1.057000000E-01  0.00000E+00  9.000E+00
       1     1     1     2   501     0 -3.101697619E+01  8.899274565E+00  2.650661017E+02  2.670232145E+02  3.300000000E-01  0.00000E+00  9.000E+00
       4     1     1     2   502     0 -1.723620566E+01  2.078363089E+01 -1.083272437E+02  1.116516361E+02  1.500000000E+00  0.00000E+00  9.000E+00
      -2     1     1     2     0   511  3.042498619E+01  6.790859797E+01  3.609232218E+02  3.685145022E+02  3.300000000E-01  0.00000E+00  9.000E+00
</event>
<event>
      8  10001  1.38289E-02  8.93444E+01 -1.00000E+00  1.28548E-01
      -3    -1     0     0     0   501  0.000000000E+00  0.000000000E+00  7.439494551E+01  7.439494551E+01  0.000000000E+00  0.00000E+00  9.000E+00
       1    -1     0     0   502     0  0.000000000E+00  0.000000000E+00 -1.433339504E+02  1.433339504E+02  0.000000000E+00  0.00000E+00  9.000E+00
      23     2     1     2     0     0  7.538433152E+00  3.251309374E+00 -2.674657515E+01  9.538359195E+01  9.118800000E+01  0.00000E+00  9.000E+00
     -13     1     3     3     0     0  6.344138629E+00  1.683715118E+01 -5.829748925E+01  6.101103327E+01  1.057000000E-01  0.00000E+00  9.000E+00
      13     1     3     3     0     0  1.194294522E+00 -1.358584181E+01  3.155091410E+01  3.437255868E+01  1.057000000E-01  0.00000E+00  9.000E+00
      -3     1     1     2     0   501  2.555355641E+01  1.174400164E+01 -5.312972410E+01  6.011591638E+01  5.000000000E-01  0.00000E+00  9.000E+00
       1     1     1     2   511     0 -9.887891629E+00  6.876240248E-01 -1.887708935E+01  2.132361672E+01  3.300000000E-01  0.00000E+00  9.000E+00
      21     1     1     2   502   511 -2.320409793E+01 -1.568293503E+01  2.981438372E+01  4.090577085E+01  1.066240300E-06  0.00000E+00  9.000E+00
</event>
<event>
      8  10001  1.12206E-02  1.65911E+02 -1.00000E+00  1.16723E-01
       2    -1     0     0   501     0  0.000000000E+00  0.000000000E+00  1.813089962E+03  1.813089962E+03  0.000000000E+00  0.00000E+00  9.000E+00
      -4    -1     0     0     0   502  0.000000000E+00  0.000000000E+00 -1.683208857E+01  1.683208857E+01  0.000000000E+00  0.00000E+00  9.000E+00
      23     2     1     2     0     0 -2.890916854E+00  3.468178281E+01  1.131746536E+03  1.135947470E+03  9.118800000E+01  0.00000E+00  9.000E+00
     -13     1     3     3     0     0 -2.130567939E+01  4.272301960E+00  9.740917231E+02  9.743340704E+02  1.057000000E-01  0.00000E+00  9.000E+00
      13     1     3     3     0     0  1.841476254E+01  3.040948085E+01  1.576548124E+02  1.616134000E+02  1.057000000E-01  0.00000E+00  9.000E+00
       2     1     1     2   512     0  4.330539416E+01  1.085022678E+01  4.786087904E+02  4.806865588E+02  3.300000000E-01  0.00000E+00  9.000E+00
      -4     1     1     2     0   502 -5.452761997E+01 -1.908784525E+01  1.695808092E+02  1.791577741E+02  1.500000000E+00  0.00000E+00  9.000E+00
      21     1     1     2   501   512  1.411314267E+01 -2.644416434E+01  1.632173777E+01  3.413024681E+01  6.384099884E-06  0.00000E+00  9.000E+00
</event>
<event>
      8  10001  1.16906E-02  7.80342E+01 -1.00000E+00  1.31468E-01
      -4    -1     0     0     0   501  0.000000000E+00  0.000000000E+00  2.270806441E+02  2.270806441E+02  0.000000000E+00  0.00000E+00  9.000E+00
       1    -1     0     0   502     0  0.000000000E+00  0.000000000E+00 -1.699095893E+02  1.699095893E+02  0.000000000E+00  0.00000E+00  9.000E+00
      23     2     1     2     0     0 -1.093681744E+01 -1.863421548E+01 -1.096755567E+02  1.442595821E+02  9.118800000E+01  0.00000E+00  9.000E+00
     -13     1     3     3     0     0  6.665349853E+00 -4.526201394E+01 -1.014620813E+02  1.112997840E+02  1.057000000E-01  0.00000E+00  9.000E+00
      13     1     3     3     0     0 -1.760216729E+01  2.662779846E+01 -8.213475343E+00  3.295979815E+01  1.057000000E-01  0.00000E+00  9.000E+00
      -4     1     1     2     0   501  3.449105249E+01 -2.186658292E+01  1.669437012E+02  1.718727131E+02  1.500000000E+00  0.00000E+00  9.000E+00
       1     1     1     2   511     0 -3.421160415E+00  2.085529470E+01  3.189173406E+01  3.826015234E+01  3.300000000E-01  0.00000E+00  9.000E+00
      21     1     1     2   502   511 -2.013307464E+01  1.964550371E+01 -3.198882379E+01  4.259778583E+01  1.168007728E-06  0.00000E+00  9.000E+00
</event>
<event>
      8  10001  1.05992E-02  1.47873E+02 -1.00000E+00  1.18751E-01
       2    -1     0     0   501     0  0.000000000E+00  0.000000000E+00  2.730686013E+02  2.730686013E+02  0.000000000E+00  0.00000E+00  9.000E+00
       3    -1     0     0   502     0  0.000000000E+00  0.000000000E+00 -7.831498054E+02  7.831498054E+02  0.000000000E+00  0.00000E+00  9.000E+00
      23     2     1     2     0     0  3.503500899E+02  1.829624551E+02 -3.591251722E+02  5.417624813E+02  9.118800000E+01  0.00000E+00  9.000E+00
     -13     1     3     3     0     0  1.900603490E+02  4.825364975E+01 -1.813217931E+02  2.670748112E+02  1.057000000E-01  0.00000E+00  9.000E+00
      13     1     3     3     0     0  1.602897410E+02  1.347088054E+02 -1.778033791E+02  2.746876701E+02  1.057000000E-01  0.00000E+00  9.000E+00
       1     1     1     2   501     0 -2.462254844E+02 -8.696220953E+01 -9.025811674E+00  2.612871777E+02  3.300000000E-01  0.00000E+00  9.000E+00
       4     1     1     2   512     0 -5.311024615E+01 -3.910426404E+01 -1.613558430E+02  1.743209677E+02  1.500000000E+00  0.00000E+00  9.000E+00
      21     1     1     2   502   512 -5.101435944E+01 -5.689598158E+01  1.942562271E+01  7.884777998E+01  3.286373318E-06  0.00000E+00  9.000E+00
</event>
<event>
      8  10001  1.12206E-02  1.87826E+02 -1.00000E+00  1.14615E-01
       2    -1     0     0   501     0  0.000000000E+00  0.000000000E+00  7.482097647E+02  7.482097647E+02  0.000000000E+00  0.00000E+00  9.000E+00
       2    -1     0     0   502     0  0.000000000E+00  0.000000000E+00 -1.207223306E+02  1.207223306E+02  0.000000000E+00  0.00000E+00  9.000E+00
      23     2     1     2     0     0 -3.689189972E+01  1.212987871E+02  4.167401389E+02  4.450415742E+02  9.118800000E+01  0.00000E+00  9.000E+00
     -13     1     3     3     0     0  2.557186498E+01  2.678839161E+01  5.778785846E+01  6.863662259E+01  1.057000000E-01  0.00000E+00  9.000E+00
      13     1     3     3     0     0 -6.246376470E+01  9.451039552E+01  3.589522805E+02  3.764049516E+02  1.057000000E-01  0.00000E+00  9.000E+00
       2     1     1     2   501     0  7.127607452E+01 -8.109859036E+01 -6.838464588E+01  1.278038687E+02  3.300000000E-01  0.00000E+00  9.000E+00
       2     1     1     2   511     0 -1.333505902E+01 -1.148374614E+01  3.228131240E+00  1.789497013E+01  3.300000000E-01  0.00000E+00  9.000E+00
      21     1     1     2   502   511 -2.104911579E+01 -2.871645062E+01  2.759038099E+02  2.781916823E+02  0.000000000E+00  0.00000E+00  9.000E+00
</event>
<event>
      8  10001  1.05785E-02  5.11049E+02 -1.00000E+00  1.00077E-01
       1    -1     0     0   501     0  0.000000000E+00  0.000000000E+00  4.369351574E+02  4.369351574E+02  0.000000000E+00  0.00000E+00  9.000E+00
       2    -1     0     0   502     0  0.000000000E+00  0.000000000E+00 -8.260162555E+02  8.260162555E+02  0.000000000E+00  0.00000E+00  9.000E+00
      23     2     1     2     0     0  1.543206487E+01 -1.192287047E+02 -3.980641986E+00  1.509461145E+02  9.118800000E+01  0.00000E+00  9.000E+00
     -13     1     3     3     0     0  2.292361155E+00  1.374531971E+01  9.165177596E+00  1.667934011E+01  1.057000000E-01  0.00000E+00  9.000E+00
      13     1     3     3     0     0  1.313970372E+01 -1.329740244E+02 -1.314581958E+01  1.342667744E+02  1.057000000E-01  0.00000E+00  9.000E+00
       1     1     1     2   512     0  1.298590123E+02 -1.411252265E+02 -9.350935046E+01  2.133630711E+02  3.300000000E-01  0.00000E+00  9.000E+00
       2     1     1     2   502     0 -1.148413594E+02  2.668099039E+02  2.334621950E+02  3.726671008E+02  3.300000000E-01  0.00000E+00  9.000E+00
      21     1     1     2   501   512 -3.044971771E+01 -6.455972760E+00 -5.250533008E+02  5.259751263E+02  0.000000000E+00  0.00000E+00  9.000E+00
</event>
<event>
      8  10001  1.16877E-02  1.88594E+02 -1.00000E+00  1.14547E-01
       4    -1     0     0   501     0  0.000000000E+00  0.000000000E+00  7.781355957E+01  7.781355957E+01  0.000000000E+00  0.00000E+00  9.000E+00
       1    -1     0     0   502     0  0.000000000E+00  0.000000000E+00 -9.765826377E+02  9.765826377E+02  0.000000000E+00  0.00000E+00  9.000E+00
      23     2     1     2     0     0  5.791580668E+01 -4.702978489E+01 -5.866771723E+02  5.983906727E+02  9.118800000E+01  0.00000E+00  9.000E+00
     -13     1     3     3     0     0  3.498437489E+01 -1.465039859E+01 -5.155656824E+02  5.169589197E+02  1.057000000E-01  0.00000E+00  9.000E+00
      13     1     3     3     0     0  2.293143178E+01 -3.237938630E+01 -7.111148993E+01  8.143175298E+01  1.057000000E-01  0.00000E+00  9.000E+00
       3     1     1     2   511     0 -1.810971839E+01 -1.801710497E+01 -9.546815362E+00  2.727580714E+01  5.000000000E-01  0.00000E+00  9.000E+00
       2     1     1     2   502     0  1.313273050E+01  3.990272647E+01  5.342720417E+01  6.796522078E+01  3.300000000E-01  0.00000E+00  9.000E+00
      21     1     1     2   501   511 -5.293881879E+01  2.514416339E+01 -3.559722947E+02  3.607644967E+02  3.814697266E-06  0.00000E+00  9.000E+00
</event>
<event>
      8  10001  1.25781E-02  1.24971E+02 -1.00000E+00  1.21848E-01
       1    -1     0     0   501     0  0.000000000E+00  0.000000000E+00  7.267268903E+02  7.267268903E+02  0.000000000E+00  0.00000E+00  9.000E+00
       4    -1     0     0   502     0  0.000000000E+00  0.000000000E+00 -7.684629787E+01  7.684629787E+01  0.000000000E+00  0.00000E+00  9.000E+00
      23     2     1     2     0     0 -6.007498712E+01 -5.716712419E+01  5.632863652E+02  5.766141385E+02  9.118800000E+01  0.00000E+00  9.000E+00
     -13     1     3     3     0     0 -8.299513982E+01 -5.583684690E+01  4.722078797E+02  4.826864816E+02  1.057000000E-01  0.00000E+00  9.000E+00
      13     1     3     3     0     0  2.292015270E+01 -1.330277290E+00  9.107848552E+01  9.392765692E+01  1.057000000E-01  0.00000E+00  9.000E+00
       2     1     1     2   511     0 -2.200478235E+01 -1.858627891E+01  9.556548886E+01  9.981248304E+01  3.300000000E-01  0.00000E+00  9.000E+00
       3     1     1     2   502     0  4.219110413E+01  4.312019905E+01 -3.464411203E+01  6.956942814E+01  5.000000000E-01  0.00000E+00  9.000E+00
      21     1     1     2   501   511  3.988866535E+01  3.263320404E+01  2.567285044E+01  5.757713851E+01  2.360223517E-06  0.00000E+00  9.000E+00
</event>
<event>
      8  10001  1.16440E-02  8.54303E+01 -1.00000E+00  1.29500E-01
      -2    -1     0     0     0   501  0.000000000E+00  0.000000000E+00  3.346130549E+01  3.346130549E+01  0.000000000E+00  0.00000E+00  9.000E+00
       2    -1     0     0   502     0  0.000000000E+00  0.000000000E+00 -9.485571416E+02  9.485571416E+02  0.000000000E+00  0.00000E+00  9.000E+00
      23     2     1     2     0     0 -6.508122283E+00  8.870292274E+01 -1.343170802E+02  1.851131912E+02  9.118800000E+01  0.00000E+00  9.000E+00
     -13     1     3     3     0     0 -2.438882551E+01  9.344535788E+01 -1.357056162E+02  1.665619259E+02  1.057000000E-01  0.00000E+00  9.000E+00
      13     1     3     3     0     0  1.788070323E+01 -4.742435136E+00  1.388535954E+00  1.855126528E+01  1.057000000E-01  0.00000E+00  9.000E+00
      -1     1     1     2     0   511 -6.127918105E+00  1.754237389E+01 -1.961657153E+01  2.702230635E+01  3.300000000E-01  0.00000E+00  9.000E+00
       1     1     1     2   502     0  2.844991386E+01 -7.991450450E+01 -5.549378242E+02  5.613838466E+02  3.300000000E-01  0.00000E+00  9.000E+00
      21     1     1     2   511   501 -1.581387347E+01 -2.633079213E+01 -2.062243602E+02  2.084991030E+02  9.344061824E-06  0.00000E+00  9.000E+00
</event>
<event>
      8  10001  1.24616E-02  1.36386E+02 -1.00000E+00  1.20219E-01
       2    -1     0     0   501     0  0.000000000E+00  0.000000000E+00  1.168664406E+03  1.168664406E+03  0.000000000E+00  0.00000E+00  9.000E+00
      -2    -1     0     0     0   502  0.000000000E+00  0.000000000E+00 -8.266635315E+01  8.266635315E+01  0.000000000E+00  0.00000E+00  9.000E+00
      23     2     1     2     0     0  2.691603193E+01  1.294003826E+02  9.250232842E+02  9.388568897E+02  9.118800000E+01  0.00000E+00  9.000E+00
     -13     1     3     3     0     0 -9.679186697E-01  4.988434841E+00  3.427669029E+02  3.428045832E+02  1.057000000E-01  0.00000E+00  9.000E+00
      13     1     3     3     0     0  2.788395060E+01  1.244119478E+02  5.822563812E+02  5.960523065E+02  1.057000000E-01  0.00000E+00  9.000E+00
       2     1     1     2   501     0 -9.528731621E+00 -5.373768179E+01 -4.033999625E+01  6.786721866E+01  3.300000000E-01  0.00000E+00  9.000E+00
      -2     1     1     2     0   511  1.724499160E+01 -9.039863894E+00 -8.880333167E+00  2.140275898E+01  3.300000000E-01  0.00000E+00  9.000E+00
      21     1     1     2   511   502 -3.463229191E+01 -6.662283693E+01  2.101950980E+02  2.232038917E+02  0.000000000E+00  0.00000E+00  9.000E+00
</event>
<event>
      8  10001  1.31172E-02  1.36955E+02 -1.00000E+00  1.20143E-01
      -2    -1     0     0     0   501  0.000000000E+00  0.000000000E+00  1.232802367E+02  1.232802367E+02  0.000000000E+00  0.00000E+00  9.000E+00
       2    -1     0     0   502     0  0.000000000E+00  0.000000000E+00 -2.424556360E+02  2.424556360E+02  0.000000000E+00  0.00000E+00  9.000E+00
      23     2     1     2     0     0 -5.258882524E-02 -5.909131196E+00 -1.881733110E+02  2.091873967E+02  9.118800000E+01  0.00000E+00  9.000E+00
     -13     1     3     3     0     0  2.480660364E+01 -3.142011694E+01 -1.564437021E+02  1.614844712E+02  1.057000000E-01  0.00000E+00  9.000E+00
      13     1     3     3     0     0 -2.485919247E+01  2.551098575E+01 -3.172960889E+01  4.770292545E+01  1.057000000E-01  0.00000E+00  9.000E+00
      -1     1     1     2     0   501  1.314240192E+01  3.641784654E+01  2.224742955E+01  4.465466713E+01  3.300000000E-01  0.00000E+00  9.000E+00
       1     1     1     2   512     0 -1.026523991E+01 -4.313416451E+01 -1.651743064E+01  4.731665366E+01  3.300000000E-01  0.00000E+00  9.000E+00
      21     1     1     2   502   512 -2.824573191E+00  1.262544917E+01  6.326791282E+01  6.457715520E+01  1.348699152E-06  0.00000E+00  9.000E+00
</event>
<event>
      8  10001  1.25593E-02  3.58048E+01 -1.00000E+00  1.51340E-01
      -1    -1     0     0     0   501  0.000000000E+00  0.000000000E+00  3.711237057E+02  3.711237057E+02  0.000000000E+00  0.00000E+00  9.000E+00
      -4    -1     0     0     0   502  0.000000000E+00  0.000000000E+00 -7.995335906E+01  7.995335906E+01  0.000000000E+00  0.00000E+00  9.000E+00
      23     2     1     2     0     0 -1.415830688E+02  2.425679723E+01  1.379275344E+02  2.190283399E+02  9.118800000E+01  0.00000E+00  9.000E+00
     -13     1     3     3     0     0 -6.525767979E+00 -2.372045623E+01  8.845806700E+00  2.614393161E+01  1.057000000E-01  0.00000E+00  9.000E+00
      13     1     3     3     0     0 -1.350573008E+02  4.797725346E+01  1.290817277E+02  1.928844083E+02  1.057000000E-01  0.00000E+00  9.000E+00
      -2     1     1     2     0   501  1.371775598E+02 -9.925186979E+00  1.166591922E+02  1.803487408E+02  3.300000000E-01  0.00000E+00  9.000E+00
      -3     1     1     2     0   511 -1.441521992E+01 -8.595928130E+00  1.838485899E+01  2.489862618E+01  5.000000000E-01  0.00000E+00  9.000E+00
      21     1     1     2   511   502  1.882072888E+01 -5.735682118E+00  1.819876094E+01  2.680135789E+01  1.168007728E-06  0.00000E+00  9.000E+00
</event>
<event>
      8  10001  1.06316E-02  2.38634E+02 -1.00000E+00  1.10759E-01
      -2    -1     0     0     0   501  0.000000000E+00  0.000000000E+00  2.208752076E+03  2.208752076E+03  0.000000000E+00  0.00000E+00  9.000E+00
       2    -1     0     0   502     0  0.000000000E+00  0.000000000E+00 -7.649342485E+01  7.649342485E+01  0.000000000E+00  0.00000E+00  9.000E+00
      23     2     1     2     0     0  2.734428186E+02  2.245650148E+02  1.047027499E+03  1.108955480E+03  9.118800000E+01  0.00000E+00  9.000E+00
     -13     1     3     3     0     0  2.619614352E+02  1.887802300E+02  8.701291594E+02  9.281091175E+02  1.057000000E-01  0.00000E+00  9.000E+00
      13     1     3     3     0     0  1.148138340E+01  3.578478480E+01  1.768983398E+02  1.808463623E+02  1.057000000E-01  0.00000E+00  9.000E+00
      -2     1     1     2     0   501 -9.955644008E+01 -1.410732333E+02  7.808744090E+02  7.997362650E+02  3.300000000E-01  0.00000E+00  9.000E+00
       2     1     1     2   512     0  1.651981005E+00  3.348639318E-01 -8.215665277E+00  8.393284878E+00  3.300000000E-01  0.00000E+00  9.000E+00
      21     1     1     2   502   512 -1.755383596E+02 -8.382664543E+01  3.125724084E+02  3.681604713E+02  6.607249480E-06  0.00000E+00  9.000E+00
</event>
<event>
      8  10001  1.06630E-02  4.65166E+02 -1.00000E+00  1.01281E-01
       2    -1     0     0   501     0  0.000000000E+00  0.000000000E+00  1.073681745E+03  1.073681745E+03  0.000000000E+00  0.00000E+00  9.000E+00
       1    -1     0     0   502     0  0.000000000E+00  0.000000000E+00 -1.988554246E+02  1.988554246E+02  0.000000000E+00  0.00000E+00  9.000E+00
      23     2     1     2     0     0 -3.003334010E+02 -2.289090452E+02  2.933009062E+02  4.867650107E+02  9.118800000E+01  0.00000E+00  9.000E+00
     -13     1     3     3     0     0 -1.011371778E+02 -4.716172111E+01  4.538828977E+01  1.204701818E+02  1.057000000E-01  0.00000E+00  9.000E+00
      13     1     3     3     0     0 -1.991962231E+02 -1.817473241E+02  2.479126165E+02  3.662948289E+02  1.057000000E-01  0.00000E+00  9.000E+00
       1     1     1     2   501     0  3.062708923E+01  1.281395277E+02  1.630825105E+02  2.096515473E+02  3.300000000E-01  0.00000E+00  9.000E+00
       2     1     1     2   511     0  2.740593722E+01 -1.191387259E+01 -3.731074067E+01  4.780403774E+01  3.300000000E-01  0.00000E+00  9.000E+00
      21     1     1     2   502   511  2.423003745E+02  1.126833901E+02  4.557536448E+02  5.283165743E+02  5.394796609E-06  0.00000E+00  9.000E+00
</event>
<event>
      8  10001  1.14848E-02  4.62077E+02 -1.00000E+00  1.01368E-01
       3    -1     0     0   501     0  0.000000000E+00  0.000000000E+00  7.224731873E+02  7.224731873E+02  0.000000000E+00  0.00000E+00  9.000E+00
       3    -1     0     0   502     0  0.000000000E+00  0.000000000E+00 -7.083801438E+02  7.083801438E+02  0.000000000E+00  0.00000E+00  9.000E+00
      23     2     1     2     0     0  7.815131161E+01 -2.902574764E+02  2.527006254E+02  4.031499567E+02  9.118800000E+01  0.00000E+00  9.000E+00
     -13     1     3     3     0     0  8.582218767E+01 -2.074553318E+02  1.457223415E+02  2.676530862E+02  1.057000000E-01  0.00000E+00  9.000E+00
      13     1     3     3     0     0 -7.670876058E+00 -8.280214468E+01  1.069782839E+02  1.354968705E+02  1.057000000E-01  0.00000E+00  9.000E+00
       3     1     1     2   512     0 -1.057890666E+02  1.330248670E+02 -3.139153817E+01  1.728369767E+02  5.000000000E-01  0.00000E+00  9.000E+00
       3     1     1     2   502     0 -3.093595594E+01 -6.243503187E+00 -5.072347926E+02  5.082158985E+02  5.000000000E-01  0.00000E+00  9.000E+00
      21     1     1     2   501   512  5.857371089E+01  1.634761127E+02  3.000187489E+02  3.466504993E+02  7.629394531E-06  0.00000E+00  9.000E+00
</event>
<event>
      8  10001  2.35861E-02  3.70458E+02 -1.00000E+00  1.04323E-01
       1    -1     0     0   501     0  0.000000000E+00  0.000000000E+00  1.511295043E+02  1.511295043E+02  0.000000000E+00  0.00000E+00  9.000E+00
       2    -1     0     0   502     0  0.000000000E+00  0.000000000E+00 -1.329351823E+03  1.329351823E+03  0.000000000E+00  0.00000E+00  9.000E+00
      23     2     1     2     0     0  3.611930326E+01  1.106646040E+02  1.042422505E+02  1.809225160E+02  9.118800000E+01  0.00000E+00  9.000E+00
     -13     1     3     3     0     0  5.944076704E+01  1.014543109E+02  1.021535327E+02  1.557611550E+02  1.057000000E-01  0.00000E+00  9.000E+00
      13     1     3     3     0     0 -2.332146378E+01  9.210293060E+00  2.088717833E+00  2.516136097E+01  1.057000000E-01  0.00000E+00  9.000E+00
       2     1     1     2   511     0 -5.377141177E+01 -1.382405483E+01 -1.135905984E+02  1.264333903E+02  3.300000000E-01  0.00000E+00  9.000E+00
       1     1     1     2   502     0  7.685548323E+00 -1.258438109E+01 -2.005199775E+02  2.010616935E+02  3.300000000E-01  0.00000E+00  9.000E+00
      21     1     1     2   501   511  9.966560188E+00 -8.425616806E+01 -9.683539929E+02  9.720637272E+02  2.854658040E-05  0.00000E+00  9.000E+00
</event>
<event>
      8  10001  1.16247E-02  1.65431E+02 -1.00000E+00  1.16773E-01
       1    -1     0     0   501     0  0.000000000E+00  0.000000000E+00  6.074970296E+01  6.074970296E+01  0.000000000E+00  0.00000E+00  9.000E+00
      -3    -1     0     0     0   502  0.000000000E+00  0.000000000E+00 -7.469870547E+02  7.469870547E+02  0.000000000E+00  0.00000E+00  9.000E+00
      23     2     1     2     0     0 -1.519411217E+01  9.548499275E+01 -5.111259834E+02  5.281223978E+02  9.118800000E+01  0.00000E+00  9.000E+00
     -13     1     3     3     0     0  4.965227395E+00  3.527900481E+01 -3.876058776E+02  3.892397580E+02  1.057000000E-01  0.00000E+00  9.000E+00
      13     1     3     3     0     0 -2.015933957E+01  6.020598794E+01 -1.235201057E+02  1.388826399E+02  1.057000000E-01  0.00000E+00  9.000E+00
       2     1     1     2   501     0 -2.572431915E+01 -4.417348684E+01  3.263961214E+00  5.122304050E+01  3.300000000E-01  0.00000E+00  9.000E+00
      -4     1     1     2     0   511  2.003193303E+01 -9.015277570E+00 -1.798532081E+02  1.811959714E+02  1.500000000E+00  0.00000E+00  9.000E+00
      21     1     1     2   511   502  2.088649830E+01 -4.229622834E+01  1.477878519E+00  4.719534795E+01  1.499918643E-06  0.00000E+00  9.000E+00
</event>
<event>
      8  10001  1.09748E-02  2.12354E+02 -1.00000E+00  1.12604E-01
       1    -1     0     0   501     0  0.000000000E+00  0.000000000E+00  1.075850989E+03  1.075850989E+03  0.000000000E+00  0.00000E+00  9.000E+00
       2    -1     0     0   502     0  0.000000000E+00  0.000000000E+00 -4.245123739E+01  4.245123739E+01  0.000000000E+00  0.00000E+00  9.000E+00
      23     2     1     2     0     0 -9.163377071E+00 -2.550190033E+01  1.658334014E+02  1.911812825E+02  9.118800000E+01  0.00000E+00  9.000E+00
     -13     1     3     3     0     0 -4.444528485E+01  8.365697468E+00  9.353452389E+01  1.038945936E+02  1.057000000E-01  0.00000E+00  9.000E+00
      13     1     3     3     0     0  3.528190778E+01 -3.386759780E+01  7.229887750E+01  8.728668889E+01  1.057000000E-01  0.00000E+00  9.000E+00
       2     1     1     2   501     0  3.856688432E+01 -7.200268037E+01  4.462642333E+01  9.307747905E+01  3.300000000E-01  0.00000E+00  9.000E+00
       1     1     1     2   512     0 -1.016104714E+01  2.574608731E+01  4.692970710E+01  5.448499058E+01  3.300000000E-01  0.00000E+00  9.000E+00
      21     1     1     2   502   512 -1.924246010E+01  7.175849340E+01  7.760102194E+02  7.795584739E+02  1.078959322E-05  0.00000E+00  9.000E+00
</event>
<event>
      8  10001  1.46413E-02  4.09969E+01 -1.00000E+00  1.47454E-01
       4    -1     0     0   501     0  0.000000000E+00  0.000000000E+00  2.970378091E+02  2.970378091E+02  0.000000000E+00  0.00000E+00  9.000E+00
       2    -1     0     0   502     0  0.000000000E+00  0.000000000E+00 -4.204532489E+01  4.204532489E+01  0.000000000E+00  0.00000E+00  9.000E+00
      23     2     1     2     0     0 -7.161650297E+01 -1.143731512E+01  8.509114867E+01  1.442757450E+02  9.118800000E+01  0.00000E+00  9.000E+00
     -13     1     3     3     0     0  1.000803365E+01  1.568569260E+01 -5.453507359E+00  1.938952307E+01  1.057000000E-01  0.00000E+00  9.000E+00
      13     1     3     3     0     0 -8.162453662E+01 -2.712300772E+01  9.054465603E+01  1.248862220E+02  1.057000000E-01  0.00000E+00  9.000E+00
       4     1     1     2   511     0  2.015223331E+01  5.244700323E+00  8.900855584E+01  9.142424406E+01  1.500000000E+00  0.00000E+00  9.000E+00
       2     1     1     2   502     0  2.396267506E+01 -1.197348295E+01  5.600470691E+01  6.208228560E+01  3.300000000E-01  0.00000E+00  9.000E+00
      21     1     1     2   501   511  2.750159459E+01  1.816609775E+01  2.488807281E+01  4.130085933E+01  5.840038640E-07  0.00000E+00  9.000E+00
</event>
<event>
      8  10001  1.05188E-02  7.41055E+02 -1.00000E+00  9.55900E-02
       2    -1     0     0   501     0  0.000000000E+00  0.000000000E+00  9.486745160E+02  9.486745160E+02  0.000000000E+00  0.00000E+00  9.000E+00
       3    -1     0     0   502     0  0.000000000E+00  0.000000000E+00 -6.051073753E+02  6.051073753E+02  0.000000000E+00  0.00000E+00  9.000E+00
      23     2     1     2     0     0 -4.756711259E+01 -9.810453797E+00 -6.656968391E+01  1.229050421E+02  9.118800000E+01  0.00000E+00  9.000E+00
     -13     1     3     3     0     0 -4.528861980E+01 -3.733905724E+01 -9.444011817E+00  5.945136509E+01  1.057000000E-01  0.00000E+00  9.000E+00
      13     1     3     3     0     0 -2.278492784E+00  2.752860344E+01 -5.712567209E+01  6.345367697E+01  1.057000000E-01  0.00000E+00  9.000E+00
       1     1     1     2   511     0  3.770052995E+02 -2.318562934E+02  6.217658378E+02  7.632058717E+02  3.300000000E-01  0.00000E+00  9.000E+00
       4     1     1     2   502     0 -1.328689978E+02  3.163593451E+02  3.343225115E+01  3.447569742E+02  1.500000000E+00  0.00000E+00  9.000E+00
      21     1     1     2   501   511 -1.965691891E+02 -7.469259791E+01 -2.450612644E+02  3.229140034E+02  2.697398305E-06  0.00000E+00  9.000E+00
</event>
<event>
      8  10001  1.05917E-02  4.54076E+02 -1.00000E+00  1.01595E-01
       1    -1     0     0   501     0  0.000000000E+00  0.000000000E+00  4.968525968E+02  4.968525968E+02  0.000000000E+00  0.00000E+00  9.000E+00
       2    -1     0     0   502     0  0.000000000E+00  0.000000000E+00 -8.247396315E+02  8.247396315E+02  0.000000000E+00  0.00000E+00  9.000E+00
      23     2     1     2     0     0  3.799009213E+02 -2.083914205E+02  1.564588524E+02  4.696235918E+02  9.118800000E+01  0.00000E+00  9.000E+00
     -13     1     3     3     0     0  3.375946650E+02 -1.893041142E+02  1.065013825E+02  4.014333832E+02  1.057000000E-01  0.00000E+00  9.000E+00
      13     1     3     3     0     0  4.230625631E+01 -1.908730634E+01  4.995746986E+01  6.819020864E+01  1.057000000E-01  0.00000E+00  9.000E+00
       2     1     1     2   511     0 -2.958912015E+01 -1.680348620E+01  1.158644810E+02  1.207582711E+02  3.300000000E-01  0.00000E+00  9.000E+00
       1     1     1     2   502     0 -2.032190741E+02  1.165881876E+02 -3.547792713E+02  4.251578975E+02  3.300000000E-01  0.00000E+00  9.000E+00
      21     1     1     2   501   511 -1.470927270E+02  1.086067191E+02 -2.454310967E+02  3.060524678E+02  9.725607898E-06  0.00000E+00  9.000E+00
</event>
<event>
      8  10001  1.08612E-02  4.15396E+01 -1.00000E+00  1.47087E-01
      -1    -1     0     0     0   501  0.000000000E+00  0.000000000E+00  1.073210354E+02  1.073210354E+02  0.000000000E+00  0.00000E+00  9.000E+00
       3    -1     0     0   502     0  0.000000000E+00  0.000000000E+00 -1.033938413E+03  1.033938413E+03  0.000000000E+00  0.00000E+00  9.000E+00
      23     2     1     2     0     0 -2.555623492E+02 -1.908011563E+02 -4.603367832E+02  5.673996836E+02  9.118800000E+01  0.00000E+00  9.000E+00
     -13     1     3     3     0     0 -5.949264050E+01 -2.079819446E+00 -8.622255082E+01  1.047761393E+02  1.057000000E-01  0.00000E+00  9.000E+00
      13     1     3     3     0     0 -1.960697087E+02 -1.887213368E+02 -3.741142324E+02  4.626235443E+02  1.057000000E-01  0.00000E+00  9.000E+00
      -2     1     1     2     0   501  2.109235910E+02  1.367019829E+02 -3.500151038E+02  4.309139997E+02  3.300000000E-01  0.00000E+00  9.000E+00
       4     1     1     2   511     0  2.625888147E+01  2.824181362E+01 -1.002218055E+02  1.073954803E+02  1.500000000E+00  0.00000E+00  9.000E+00
      21     1     1     2   502   511  1.837987672E+01  2.585735973E+01 -1.604368503E+01  3.555028480E+01  1.327458468E-06  0.00000E+00  9.000E+00
</event>
<event>
      8  10001  1.34486E-02  7.08405E+01 -1.00000E+00  1.33640E-01
      -2    -1     0     0     0   501  0.000000000E+00  0.000000000E+00  1.087723427E+02  1.087723427E+02  0.000000000E+00  0.00000E+00  9.000E+00
      -1    -1     0     0     0   502  0.000000000E+00  0.000000000E+00 -5.695014981E+02  5.695014981E+02  0.000000000E+00  0.00000E+00  9.000E+00
      23     2     1     2     0     0 -1.400502333E+01 -8.037543228E+01 -4.148746250E+02  4.325419709E+02  9.118800000E+01  0.00000E+00  9.000E+00
     -13     1     3     3     0     0  2.318260709E+01 -3.923601732E+01 -3.152105510E+02  3.184879919E+02  1.057000000E-01  0.00000E+00  9.000E+00
      13     1     3     3     0     0 -3.718763042E+01 -4.113941496E+01 -9.966407401E+01  1.140539791E+02  1.057000000E-01  0.00000E+00  9.000E+00
      -2     1     1     2     0   512  4.252789294E+00  2.739855082E+01 -1.636994816E+01  3.220016935E+01  3.300000000E-01  0.00000E+00  9.000E+00
      -1     1     1     2     0   502  2.123334683E+01  2.740367929E+01  8.703596115E+01  9.368662706E+01  3.300000000E-01  0.00000E+00  9.000E+00
      21     1     1     2   512   501 -1.148111280E+01  2.557320217E+01 -1.165205433E+02  1.198450735E+02  1.907348633E-06  0.00000E+00  9.000E+00
</event>
<event>
      8  10001  3.97037E-02  6.73018E+01 -1.00000E+00  1.34821E-01
      -1    -1     0     0     0   501  0.000000000E+00  0.000000000E+00  1.097867521E+02  1.097867521E+02  0.000000000E+00  0.00000E+00  9.000E+00
      -2    -1     0     0     0   502  0.000000000E+00  0.000000000E+00 -1.831971013E+02  1.831971013E+02  0.000000000E+00  0.00000E+00  9.000E+00
      23     2     1     2     0     0  2.834768012E+00  4.758209604E+01 -1.370418046E+02  1.713703572E+02  9.118800000E+01  0.00000E+00  9.000E+00
     -13     1     3     3     0     0 -1.533417940E+01  4.426431554E+01 -1.441570831E+02  1.515775131E+02  1.057000000E-01  0.00000E+00  9.000E+00
      13     1     3     3     0     0  1.816894741E+01  3.317780502E+00  7.115278506E+00  1.979284412E+01  1.057000000E-01  0.00000E+00  9.000E+00
      -2     1     1     2     0   511 -4.921699748E+00  1.425766012E+01 -1.306337519E+01  1.995656964E+01  3.300000000E-01  0.00000E+00  9.000E+00
      -1     1     1     2     0   502 -2.424005187E+00 -5.344385113E+01  4.967629799E+01  7.300660591E+01  3.300000000E-01  0.00000E+00  9.000E+00
      21     1     1     2   511   501  4.510936923E+00 -8.395905022E+00  2.701853257E+01  2.865032068E+01  4.768371582E-07  0.00000E+00  9.000E+00
</event>
<event>
      8  10001  1.11520E-02  1.75592E+02 -1.00000E+00  1.15750E-01
      -1    -1     0     0     0   501  0.000000000E+00  0.000000000E+00  3.922729226E+02  3.922729226E+02  0.000000000E+00  0.00000E+00  9.000E+00
      -1    -1     0     0     0   502  0.000000000E+00  0.000000000E+00 -3.393646759E+02  3.393646759E+02  0.000000000E+00  0.00000E+00  9.000E+00
      23     2     1     2     0     0  1.237020051E+02 -3.608400450E+01  1.960439593E+02  2.516996758E+02  9.118800000E+01  0.00000E+00  9.000E+00
     -13     1     3     3     0     0  8.047258294E+01 -4.151238304E+01  1.861745619E+02  2.070267935E+02  1.057000000E-01  0.00000E+00  9.000E+00
      13     1     3     3     0     0  4.322942214E+01  5.428378543E+00  9.869397436E+00  4.467288228E+01  1.057000000E-01  0.00000E+00  9.000E+00
      -1     1     1     2     0   511  3.246386390E+01  6.005264635E+00 -3.655901830E+00  3.321807009E+01  3.300000000E-01  0.00000E+00  9.000E+00
      -1     1     1     2     0   502 -1.709117271E+02  5.231427258E+01 -2.643085270E+02  3.190716344E+02  3.300000000E-01  0.00000E+00  9.000E+00
      21     1     1     2   511   501  1.474585811E+01 -2.223553272E+01  1.248287162E+02  1.276482182E+02  2.336015456E-06  0.00000E+00  9.000E+00
</event>
<event>
      8  10001  1.06139E-02  2.73782E+02 -1.00000E+00  1.08663E-01
       2    -1     0     0   501     0  0.000000000E+00  0.000000000E+00  5.833172197E+02  5.833172197E+02  0.000000000E+00  0.00000E+00  9.000E+00
       1    -1     0     0   502     0  0.000000000E+00  0.000000000E+00 -6.913587008E+02  6.913587008E+02  0.000000000E+00  0.00000E+00  9.000E+00
      23     2     1     2     0     0 -1.128593241E+02  1.595522419E+02 -5.321665456E+02  5.742043439E+02  9.118800000E+01  0.00000E+00  9.000E+00
     -13     1     3     3     0     0 -9.151575267E+01  1.682652836E+02 -4.551547017E+02  4.938159093E+02  1.057000000E-01  0.00000E+00  9.000E+00
      13     1     3     3     0     0 -2.134357145E+01 -8.713041685E+00 -7.701184391E+01  8.038843457E+01  1.057000000E-01  0.00000E+00  9.000E+00
       1     1     1     2   501     0  8.209895062E+01 -2.260324885E+02  3.667828181E+02  4.385894072E+02  3.300000000E-01  0.00000E+00  9.000E+00
       2     1     1     2   511     0  2.688024604E+00  1.014541074E+02 -7.236069282E+01  1.246448561E+02  3.300000000E-01  0.00000E+00  9.000E+00
      21     1     1     2   502   511  2.807234890E+01 -3.497386084E+01  1.297029392E+02  1.372373132E+02  3.303624740E-06  0.00000E+00  9.000E+00
</event>
<event>
      8  10001  1.94909E-02  3.41161E+01 -1.00000E+00  1.52779E-01
      21    -1     0     0   512   501  0.000000000E+00  0.000000000E+00  3.820335047E+02  3.820335047E+02  0.000000000E+00  0.00000E+00  9.000E+00
      -1    -1     0     0     0   502  0.000000000E+00  0.000000000E+00 -1.498790421E+02  1.498790421E+02  0.000000000E+00  0.00000E+00  9.000E+00
      23     2     1     2     0     0 -9.598752785E+00 -1.952048252E+01  1.464459087E+02  1.738816863E+02  9.118800000E+01  0.00000E+00  9.000E+00
     -13     1     3     3     0     0  4.805371993E+00 -7.786841258E+00  1.536741759E+02  1.539463868E+02  1.057000000E-01  0.00000E+00  9.000E+00
      13     1     3     3     0     0 -1.440412478E+01 -1.173364127E+01 -7.228267141E+00  1.993529950E+01  1.057000000E-01  0.00000E+00  9.000E+00
      -2     1     1     2     0   501 -2.338251004E+01  3.867767196E+01  1.977857456E+02  2.028842383E+02  3.300000000E-01  0.00000E+00  9.000E+00
      -1     1     1     2     0   502  5.759856778E+00  1.407076419E+00 -1.199791339E+02  1.201260059E+02  3.300000000E-01  0.00000E+00  9.000E+00
       2     1     1     2   512     0  2.722140605E+01 -2.056426586E+01  7.901942265E+00  3.502061634E+01  3.300000000E-01  0.00000E+00  9.000E+00
</event>
<event>
      8  10001  1.08364E-02  3.43543E+02 -1.00000E+00  1.05372E-01
       2    -1     0     0   501     0  0.000000000E+00  0.000000000E+00  5.114557534E+01  5.114557534E+01  0.000000000E+00  0.00000E+00  9.000E+00
       2    -1     0     0   502     0  0.000000000E+00  0.000000000E+00 -1.487331661E+03  1.487331661E+03  0.000000000E+00  0.00000E+00  9.000E+00
      23     2     1     2     0     0  5.344921421E+01  1.666787852E+02 -7.385016140E+02  7.644203825E+02  9.118800000E+01  0.00000E+00  9.000E+00
     -13     1     3     3     0     0 -1.850201226E+01  3.762972138E+01 -2.681230317E+02  2.713821875E+02  1.057000000E-01  0.00000E+00  9.000E+00
      13     1     3     3     0     0  7.195122647E+01  1.290490638E+02 -4.703785823E+02  4.930381950E+02  1.057000000E-01  0.00000E+00  9.000E+00
       2     1     1     2   501     0 -7.803600638E+01 -8.592292796E+01 -4.345722467E+02  4.498060853E+02  3.300000000E-01  0.00000E+00  9.000E+00
       2     1     1     2   511     0 -5.657222420E+00  4.014909974E+01 -1.518889689E+02  1.572078947E+02  3.300000000E-01  0.00000E+00  9.000E+00
      21     1     1     2   502   511  3.024401460E+01 -1.209049570E+02 -1.112232561E+02  1.670428739E+02  7.979011789E-06  0.00000E+00  9.000E+00
</event>
<event>
      8  10001  1.09602E-02  1.32787E+02 -1.00000E+00  1.20713E-01
       2    -1     0     0   501     0  0.000000000E+00  0.000000000E+00  5.223904872E+01  5.223904872E+01  0.000000000E+00  0.00000E+00  9.000E+00
       1    -1     0     0   502     0  0.000000000E+00  0.000000000E+00 -1.757409876E+03  1.757409876E+03  0.000000000E+00  0.00000E+00  9.000E+00
      23     2     1     2     0     0 -4.660742437E+01 -6.989823835E+00 -2.397785412E+01  1.054101441E+02  9.118800000E+01  0.00000E+00  9.000E+00
     -13     1     3     3     0     0  2.626844411E+01 -7.141154865E+00 -1.724281189E+01  3.222348496E+01  1.057000000E-01  0.00000E+00  9.000E+00
      13     1     3     3     0     0 -7.287586848E+01  1.513310298E-01 -6.735042225E+00  7.318665912E+01  1.057000000E-01  0.00000E+00  9.000E+00
       2     1     1     2   501     0  4.976865316E+01 -4.795836894E+01 -1.044755820E+03  1.047039519E+03  3.300000000E-01  0.00000E+00  9.000E+00
       1     1     1     2   512     0 -6.619043193E+00 -7.017112326E-01 -5.717896820E+02  5.718285176E+02  3.300000000E-01  0.00000E+00  9.000E+00
      21     1     1     2   502   512  3.457814400E+00  5.564990400E+01 -6.464747208E+01  8.537074407E+01  6.743495762E-06  0.00000E+00  9.000E+00
</event>
<event>
      8  10001  1.06091E-02  6.50917E+02 -1.00000E+00  9.71087E-02
       2    -1     0     0   501     0  0.000000000E+00  0.000000000E+00  7.758186099E+02  7.758186099E+02  0.000000000E+00  0.00000E+00  9.000E+00
       1    -1     0     0   502     0  0.000000000E+00  0.000000000E+00 -2.550834362E+02  2.550834362E+02  0.000000000E+00  0.00000E+00  9.000E+00
      23     2     1     2     0     0  9.457479736E+01  8.179190000E+01 -6.518136791E+01  1.679231052E+02  9.118800000E+01  0.00000E+00  9.000E+00
     -13     1     3     3     0     0  3.601585171E+01  8.851564673E+01 -3.565238842E+01  1.019963983E+02  1.057000000E-01  0.00000E+00  9.000E+00
      13     1     3     3     0     0  5.855894564E+01 -6.723746733E+00 -2.952897949E+01  6.592670694E+01  1.057000000E-01  0.00000E+00  9.000E+00
       1     1     1     2   501     0  4.650222787E+01 -1.224666017E+02  1.311514736E+02  1.853681301E+02  3.300000000E-01  0.00000E+00  9.000E+00
       2     1     1     2   511     0 -2.981276535E+01 -6.181705840E+01 -8.945927864E+01  1.127529207E+02  3.300000000E-01  0.00000E+00  9.000E+00
      21     1     1     2   502   511 -1.112642599E+02  1.024917601E+02  5.442243467E+02  5.648578901E+02  7.629394531E-06  0.00000E+00  9.000E+00
</event>
<event>
      8  10001  1.38998E-02  4.20262E+01 -1.00000E+00  1.46764E-01
       4    -1     0     0   501     0  0.000000000E+00  0.000000000E+00  1.949700205E+02  1.949700205E+02  0.000000000E+00  0.00000E+00  9.000E+00
       2    -1     0     0   502     0  0.000000000E+00  0.000000000E+00 -1.127777638E+02  1.127777638E+02  0.000000000E+00  0.00000E+00  9.000E+00
      23     2     1     2     0     0 -6.936396101E+00  2.067088125E+00  1.497144335E+02  1.754481387E+02  9.118800000E+01  0.00000E+00  9.000E+00
     -13     1     3     3     0     0 -1.899097070E+01 -4.176695686E+01  7.050013940E+01  8.411549490E+01  1.057000000E-01  0.00000E+00  9.000E+00
      13     1     3     3     0     0  1.205457460E+01  4.383404499E+01  7.921429405E+01  9.133264380E+01  1.057000000E-01  0.00000E+00  9.000E+00
       4     1     1     2   512     0 -1.229734973E+01 -4.481876756E+00 -1.253347511E+01  1.818378476E+01  1.500000000E+00  0.00000E+00  9.000E+00
       2     1     1     2   502     0  2.134564791E+01 -6.623916850E+00 -8.229421976E+01  8.527579062E+01  3.300000000E-01  0.00000E+00  9.000E+00
      21     1     1     2   501   512 -2.111902075E+00  9.038705480E+00  2.730551815E+01  2.884007019E+01  3.371747881E-07  0.00000E+00  9.000E+00
</event>
<event>
      8  10001  2.80041E-02  1.93172E+02 -1.00000E+00  1.14149E-01
       2    -1     0     0   501     0  0.000000000E+00  0.000000000E+00  1.693518032E+03  1.693518032E+03  0.000000000E+00  0.00000E+00  9.000E+00
      -4    -1     0     0     0   502  0.000000000E+00  0.000000000E+00 -1.852433358E+01  1.852433358E+01  0.000000000E+00  0.00000E+00  9.000E+00
      23     2     1     2     0     0 -4.806996988E+01  2.813645725E+01  1.692556980E+02  2.001627460E+02  9.118800000E+01  0.00000E+00  9.000E+00
     -13     1     3     3     0     0  9.327909661E+00  4.081694596E+01  3.883370723E+01  5.710605017E+01  1.057000000E-01  0.00000E+00  9.000E+00
      13     1     3     3     0     0 -5.739787954E+01 -1.268048871E+01  1.304219908E+02  1.430566958E+02  1.057000000E-01  0.00000E+00  9.000E+00
       1     1     1     2   501     0  4.595096386E-01 -1.323762774E+01  6.661453264E+01  6.791944343E+01  3.300000000E-01  0.00000E+00  9.000E+00
      -3     1     1     2     0   511  3.093098643E+01  2.657005427E+01  2.044127148E+02  2.084406431E+02  5.000000000E-01  0.00000E+00  9.000E+00
      21     1     1     2   511   502  1.667947381E+01 -4.146888377E+01  1.234710753E+03  1.235519533E+03  3.051757813E-05  0.00000E+00  9.000E+00
</event>
<event>
      8  10001  1.42840E-02  1.20035E+02 -1.00000E+00  1.22615E-01
       4    -1     0     0   501     0  0.000000000E+00  0.000000000E+00  6.854835733E+01  6.854835733E+01  0.000000000E+00  0.00000E+00  9.000E+00
      -2    -1     0     0     0   502  0.000000000E+00  0.000000000E+00 -8.015868972E+02  8.015868972E+02  0.000000000E+00  0.00000E+00  9.000E+00
      23     2     1     2     0     0 -6.354810765E+01 -7.965141634E+01 -1.039484155E+01  1.371350217E+02  9.118800000E+01  0.00000E+00  9.000E+00
     -13     1     3     3     0     0  1.490340228E+01 -3.271915941E+01 -2.603289850E+01  4.438893746E+01  1.057000000E-01  0.00000E+00  9.000E+00
      13     1     3     3     0     0 -7.845150993E+01 -4.693225693E+01  1.563805694E+01  9.274608428E+01  1.057000000E-01  0.00000E+00  9.000E+00
       3     1     1     2   512     0  1.265480491E+00 -1.639973870E+00  2.996074661E-01  2.151910732E+00  5.000000000E-01  0.00000E+00  9.000E+00
      -1     1     1     2     0   502  4.159040799E+01  7.192367376E+01 -5.136455498E+02  5.203216665E+02  3.300000000E-01  0.00000E+00  9.000E+00
      21     1     1     2   501   512  2.069221917E+01  9.367716451E+00 -2.092977559E+02  2.105266555E+02  8.092194914E-06  0.00000E+00  9.000E+00
</event>
<event>
      8  10001  1.52086E-02  9.25895E+01 -1.00000E+00  1.27800E-01
       1    -1     0     0   501     0  0.000000000E+00  0.000000000E+00  9.310336753E+02  9.310336753E+02  0.000000000E+00  0.00000E+00  9.000E+00
       3    -1     0     0   502     0  0.000000000E+00  0.000000000E+00 -3.391471864E+01  3.391471864E+01  0.000000000E+00  0.00000E+00  9.000E+00
      23     2     1     2     0     0  1.099072520E+02  3.960425359E+01  2.920452049E+02  3.274961893E+02  9.118800000E+01  0.00000E+00  9.000E+00
     -13     1     3     3     0     0 -3.712445181E+00 -5.923392993E+00  9.682241880E+01  9.707451153E+01  1.057000000E-01  0.00000E+00  9.000E+00
      13     1     3     3     0     0  1.136196972E+02  4.552764658E+01  1.952227861E+02  2.304216778E+02  1.057000000E-01  0.00000E+00  9.000E+00
       1     1     1     2   501     0 -2.475361210E+01 -1.412776573E+01  7.785825090E+01  8.291170731E+01  3.300000000E-01  0.00000E+00  9.000E+00
       3     1     1     2   511     0 -9.116416001E+01 -2.936585639E+01  5.352657676E+02  5.437673671E+02  5.000000000E-01  0.00000E+00  9.000E+00
      21     1     1     2   502   511  6.010520090E+00  3.889368528E+00 -8.050266755E+00  1.077313019E+01  2.665600750E-06  0.00000E+00  9.000E+00
</event>
<event>
      8  10001  1.64842E-02  4.77312E+01 -1.00000E+00  1.43326E-01
      21    -1     0     0   512   501  0.000000000E+00  0.000000000E+00  3.893356540E+02  3.893356540E+02  0.000000000E+00  0.00000E+00  9.000E+00
       1    -1     0     0   502     0  0.000000000E+00  0.000000000E+00 -1.033064420E+03  1.033064420E+03  0.000000000E+00  0.00000E+00  9.000E+00
      23     2     1     2     0     0 -5.340220264E+01 -6.923331359E+01 -9.644612777E+02  9.727002901E+02  9.118800000E+01  0.00000E+00  9.000E+00
     -13     1     3     3     0     0 -7.330119994E+01 -3.075537002E+01 -5.071749056E+02  5.133666864E+02  1.057000000E-01  0.00000E+00  9.000E+00
      13     1     3     3     0     0  1.989899729E+01 -3.847794358E+01 -4.572863721E+02  4.593336037E+02  1.057000000E-01  0.00000E+00  9.000E+00
      -2     1     1     2     0   501  2.727476567E+01  2.348998037E+01 -5.739955104E+01  6.775329792E+01  3.300000000E-01  0.00000E+00  9.000E+00
       2     1     1     2   502     0  5.023041201E+00  2.931433906E+00  3.033051749E+01  3.088484157E+01  3.300000000E-01  0.00000E+00  9.000E+00
       1     1     1     2   512     0  2.110439577E+01  4.281189932E+01  3.478015453E+02  3.510616442E+02  3.300000000E-01  0.00000E+00  9.000E+00
</event>
<event>
      8  10001  1.68816E-02  3.96801E+01 -1.00000E+00  1.48372E-01
       4    -1     0     0   501     0  0.000000000E+00  0.000000000E+00  7.464223792E+01  7.464223792E+01  0.000000000E+00  0.00000E+00  9.000E+00
      -3    -1     0     0     0   502  0.000000000E+00  0.000000000E+00 -2.448698714E+02  2.448698714E+02  0.000000000E+00  0.00000E+00  9.000E+00
      23     2     1     2     0     0 -3.114626784E+01  2.292576003E+00 -1.805250631E+02  2.046457809E+02  9.118800000E+01  0.00000E+00  9.000E+00
     -13     1     3     3     0     0  1.877132355E+00 -2.647498514E+01 -1.473016194E+02  1.496737343E+02  1.057000000E-01  0.00000E+00  9.000E+00
      13     1     3     3     0     0 -3.302340019E+01  2.876756115E+01 -3.322344364E+01  5.497204666E+01  1.057000000E-01  0.00000E+00  9.000E+00
       4     1     1     2   501     0  8.399973991E+00 -2.167250203E+01  5.319460209E+01  5.807041070E+01  1.500000000E+00  0.00000E+00  9.000E+00
      -3     1     1     2     0   511  4.807975673E+00  5.870859238E+00  8.195692832E-01  7.648876523E+00  5.000000000E-01  0.00000E+00  9.000E+00
      21     1     1     2   511   502  1.793831817E+01  1.350906679E+01 -4.371674180E+01  4.914704119E+01  8.259061849E-07  0.00000E+00  9.000E+00
</event>
<event>
      8  10001  1.42558E-02  1.45562E+02 -1.00000E+00  1.19034E-01
       2    -1     0     0   501     0  0.000000000E+00  0.000000000E+00  2.199163960E+03  2.199163960E+03  0.000000000E+00  0.00000E+00  9.000E+00
      -2    -1     0     0     0   502  0.000000000E+00  0.000000000E+00 -2.073771250E+01  2.073771250E+01  0.000000000E+00  0.00000E+00  9.000E+00
      23     2     1     2     0     0  9.724489036E+00 -1.478521680E+02  7.041235353E+02  7.252999612E+02  9.118800000E+01  0.00000E+00  9.000E+00
     -13     1     3     3     0     0 -1.214363444E+01 -1.513172043E+02  6.194391524E+02  6.377689542E+02  1.057000000E-01  0.00000E+00  9.000E+00
      13     1     3     3     0     0  2.186812348E+01  3.465036262E+00  8.468438291E+01  8.753100697E+01  1.057000000E-01  0.00000E+00  9.000E+00
       1     1     1     2   501     0 -3.473719640E+00  1.395278251E+02  7.160284223E+02  7.295045518E+02  3.300000000E-01  0.00000E+00  9.000E+00
      -1     1     1     2     0   512  5.263716972E+00 -2.335312486E+01  4.453388433E+01  5.056135788E+01  3.300000000E-01  0.00000E+00  9.000E+00
      21     1     1     2   512   502 -1.151448637E+01  3.167746779E+01  7.137404053E+02  7.145358014E+02  7.629394531E-06  0.00000E+00  9.000E+00
</event>
<event>
      8  10001  1.07353E-02  1.81560E+02 -1.00000E+00  1.15184E-01
       2    -1     0     0   501     0  0.000000000E+00  0.000000000E+00  6.056935884E+02  6.056935884E+02  0.000000000E+00  0.00000E+00  9.000E+00
       1    -1     0     0   502     0  0.000000000E+00  0.000000000E+00 -5.884524250E+02  5.884524250E+02  0.000000000E+00  0.00000E+00  9.000E+00
      23     2     1     2     0     0 -4.562917093E+01 -2.049836736E+01  5.029706218E+02  5.136116257E+02  9.118800000E+01  0.00000E+00  9.000E+00
     -13     1     3     3     0     0 -1.444293893E+01  2.308674745E-01  4.407831827E+02  4.410198149E+02  1.057000000E-01  0.00000E+00  9.000E+00
      13     1     3     3     0     0 -3.118623200E+01 -2.072923484E+01  6.218743910E+01  7.259181081E+01  1.057000000E-01  0.00000E+00  9.000E+00
       1     1     1     2   511     0  1.052241259E+02  7.805926705E+01  4.846761851E+01  1.396946126E+02  3.300000000E-01  0.00000E+00  9.000E+00
       2     1     1     2   502     0 -4.767243656E+01 -5.289588289E+01 -4.295386329E+02  4.354011732E+02  3.300000000E-01  0.00000E+00  9.000E+00
      21     1     1     2   501   511 -1.192251840E+01 -4.665016797E+00 -1.046584441E+02  1.054386018E+02  4.046097457E-06  0.00000E+00  9.000E+00
</event>
<event>
      8  10001  1.25633E-02  5.08895E+02 -1.00000E+00  1.00130E-01
       2    -1     0     0   501     0  0.000000000E+00  0.000000000E+00  2.611892966E+02  2.611892966E+02  0.000000000E+00  0.00000E+00  9.000E+00
       1    -1     0     0   502     0  0.000000000E+00  0.000000000E+00 -6.834567953E+02  6.834567953E+02  0.000000000E+00  0.00000E+00  9.000E+00
      23     2     1     2     0     0 -1.228329588E+02 -5.661560572E+01 -4.196387564E+02  4.502279420E+02  9.118800000E+01  0.00000E+00  9.000E+00
     -13     1     3     3     0     0  6.334883694E+00 -1.696674650E+00 -1.107644475E+02  1.109584763E+02  1.057000000E-01  0.00000E+00  9.000E+00
      13     1     3     3     0     0 -1.291678425E+02 -5.491893107E+01 -3.088743089E+02  3.392694658E+02  1.057000000E-01  0.00000E+00  9.000E+00
       1     1     1     2   501     0  1.393385722E+02  6.199443461E+01  8.380603865E+00  1.527379817E+02  3.300000000E-01  0.00000E+00  9.000E+00
       2     1     1     2   511     0 -6.469968734E+01 -7.335859608E+00 -1.665531919E+02  1.788293572E+02  3.300000000E-01  0.00000E+00  9.000E+00
      21     1     1     2   502   511  4.819407397E+01  1.957030715E+00  1.555438456E+02  1.628508110E+02  0.000000000E+00  0.00000E+00  9.000E+00
</event>
<event>
      8  10001  2.69464E-02  1.69013E+02 -1.00000E+00  1.16403E-01
      -2    -1     0     0     0   501  0.000000000E+00  0.000000000E+00  2.788485218E+01  2.788485218E+01  0.000000000E+00  0.00000E+00  9.000E+00
       1    -1     0     0   502     0  0.000000000E+00  0.000000000E+00 -1.091789208E+03  1.091789208E+03  0.000000000E+00  0.00000E+00  9.000E+00
      23     2     1     2     0     0  1.746464317E+01 -2.731899743E+00 -6.086431545E+01  1.110504087E+02  9.118800000E+01  0.00000E+00  9.000E+00
     -13     1     3     3     0     0  4.784188684E+01 -2.572604184E+01 -4.119283738E+01  6.817284202E+01  1.057000000E-01  0.00000E+00  9.000E+00
      13     1     3     3     0     0 -3.037724367E+01  2.299414210E+01 -1.967147807E+01  4.287756670E+01  1.057000000E-01  0.00000E+00  9.000E+00
      -2     1     1     2     0   512  4.975902922E+00  2.898881690E+01 -9.227030781E+01  9.684539079E+01  3.300000000E-01  0.00000E+00  9.000E+00
       1     1     1     2   502     0  1.393444143E+00 -1.454366253E+01 -2.114170568E+02  2.119215436E+02  3.300000000E-01  0.00000E+00  9.000E+00
      21     1     1     2   512   501 -2.383399023E+01 -1.171325462E+01 -6.993526754E+02  6.998567167E+02  0.000000000E+00  0.00000E+00  9.000E+00
</event>
<event>
      8  10001  1.36231E-02  4.18907E+01 -1.00000E+00  1.46854E-01
       2    -1     0     0   501     0  0.000000000E+00  0.000000000E+00  4.059684484E+03  4.059684484E+03  0.000000000E+00  0.00000E+00  9.000E+00
       2    -1     0     0   502     0  0.000000000E+00  0.000000000E+00 -3.940470137E+00  3.940470137E+00  0.000000000E+00  0.00000E+00  9.000E+00
      23     2     1     2     0     0  3.465205442E+01  2.559334103E+01  9.471958580E+02  9.525497513E+02  9.118800000E+01  0.00000E+00  9.000E+00
     -13     1     3     3     0     0  2.129874298E+01 -1.561225466E+01  7.945866386E+01  8.373212874E+01  1.057000000E-01  0.00000E+00  9.000E+00
      13     1     3     3     0     0  1.335331145E+01  4.120559569E+01  8.677371941E+02  8.688176226E+02  1.057000000E-01  0.00000E+00  9.000E+00
       2     1     1     2   511     0  4.913384497E+00 -3.245633938E+00  1.403838424E+02  1.405076781E+02  3.300000000E-01  0.00000E+00  9.000E+00
       2     1     1     2   502     0 -5.892223992E+01 -3.371232758E+01  2.809842536E+03  2.810662473E+03  3.300000000E-01  0.00000E+00  9.000E+00
      21     1     1     2   501   511  1.935680100E+01  1.136462049E+01  1.583217776E+02  1.599050519E+02  1.452593442E-05  0.00000E+00  9.000E+00
</event>
<event>
      8  10001  1.05234E-02  1.07344E+03 -1.00000E+00  9.15052E-02
       1    -1     0     0   501     0  0.000000000E+00  0.000000000E+00  8.553316172E+02  8.553316172E+02  0.000000000E+00  0.00000E+00  9.000E+00
       1    -1     0     0   502     0  0.000000000E+00  0.000000000E+00 -1.086083621E+03  1.086083621E+03  0.000000000E+00  0.00000E+00  9.000E+00
      23     2     1     2     0     0  2.367215039E+01 -3.076927087E+01  4.203020440E+02  4.318288761E+02  9.118800000E+01  0.00000E+00  9.000E+00
     -13     1     3     3     0     0  1.041586316E+00  3.197004064E+01  1.181689617E+02  1.224217427E+02  1.057000000E-01  0.00000E+00  9.000E+00
      13     1     3     3     0     0  2.263056407E+01 -6.273931151E+01  3.021330822E+02  3.094071334E+02  1.057000000E-01  0.00000E+00  9.000E+00
       1     1     1     2   511     0  1.855664361E+02  3.278013732E+02  2.007590986E+02  4.268406811E+02  3.300000000E-01  0.00000E+00  9.000E+00
       1     1     1     2   502     0 -2.391561691E+02 -2.714373409E+02 -1.698616875E+02  3.996586106E+02  3.300000000E-01  0.00000E+00  9.000E+00
      21     1     1     2   501   511  2.991758259E+01 -2.559476140E+01 -6.819514592E+02  6.830870707E+02  2.750817318E-05  0.00000E+00  9.000E+00
</event>
<event>
      8  10001  1.56998E-02  8.22642E+01 -1.00000E+00  1.30313E-01
       3    -1     0     0   501     0  0.000000000E+00  0.000000000E+00  2.037246412E+01  2.037246412E+01  0.000000000E+00  0.00000E+00  9.000E+00
       4    -1     0     0   502     0  0.000000000E+00  0.000000000E+00 -7.736595846E+02  7.736595846E+02  0.000000000E+00  0.00000E+00  9.000E+00
      23     2     1     2     0     0 -3.255979369E+01 -3.182437382E+01 -4.407520644E+02  4.523832055E+02  9.118800000E+01  0.00000E+00  9.000E+00
     -13     1     3     3     0     0 -3.888794355E+01 -2.362468381E+01 -4.396142013E+02  4.419627303E+02  1.057000000E-01  0.00000E+00  9.000E+00
      13     1     3     3     0     0  6.328149859E+00 -8.199690005E+00 -1.137863123E+00  1.042047512E+01  1.057000000E-01  0.00000E+00  9.000E+00
       4     1     1     2   501     0  2.828969547E+01  2.074194028E+01 -3.010328347E+01  4.624924467E+01  1.500000000E+00  0.00000E+00  9.000E+00
       3     1     1     2   511     0 -3.857922386E+00 -3.915217347E+00 -2.776207364E+02  2.776755945E+02  5.000000000E-01  0.00000E+00  9.000E+00
      21     1     1     2   502   511  8.128020602E+00  1.499765089E+01 -4.811036120E+00  1.772400405E+01  2.329161606E-06  0.00000E+00  9.000E+00
</event>
<event>
      8  10001  5.35388E-02  1.11448E+02 -1.00000E+00  1.24053E-01
       2    -1     0     0   501     0  0.000000000E+00  0.000000000E+00  7.451334494E+01  7.451334494E+01  0.000000000E+00  0.00000E+00  9.000E+00
       1    -1     0     0   502     0  0.000000000E+00  0.000000000E+00 -4.933237644E+02  4.933237644E+02  0.000000000E+00  0.00000E+00  9.000E+00
      23     2     1     2     0     0 -1.258132944E+00 -4.927988536E-02  4.270520003E+01  1.007004011E+02  9.118800000E+01  0.00000E+00  9.000E+00
     -13     1     3     3     0     0  1.376375197E+01 -1.999551234E+01 -2.111241193E+01  3.217151678E+01  1.057000000E-01  0.00000E+00  9.000E+00
      13     1     3     3     0     0 -1.502188492E+01  1.994623246E+01  6.381761196E+01  6.852888431E+01  1.057000000E-01  0.00000E+00  9.000E+00
       2     1     1     2   512     0  4.125094965E+00  6.297890868E+00 -2.769800417E+00  8.028731669E+00  3.300000000E-01  0.00000E+00  9.000E+00
       1     1     1     2   502     0 -7.546716792E+00 -9.733203955E+00 -2.909493931E+02  2.912101414E+02  3.300000000E-01  0.00000E+00  9.000E+00
      21     1     1     2   501   512  4.679754772E+00  3.484592972E+00 -1.677964260E+02  1.678978352E+02  4.264961200E-06  0.00000E+00  9.000E+00
</event>
<event>
      8  10001  1.79034E-02  7.66367E+01 -1.00000E+00  1.31869E-01
       2    -1     0     0   501     0  0.000000000E+00  0.000000000E+00  3.236971571E+02  3.236971571E+02  0.000000000E+00  0.00000E+00  9.000E+00
      21    -1     0     0   502   511  0.000000000E+00  0.000000000E+00 -7.870273840E+02  7.870273840E+02  0.000000000E+00  0.00000E+00  9.000E+00
      23     2     1     2     0     0 -9.041228517E+01  4.223612670E+01 -6.999040786E+02  7.128388613E+02  9.118800000E+01  0.00000E+00  9.000E+00
     -13     1     3     3     0     0 -6.111143601E+01  3.087785891E+01 -6.517570829E+02  6.553436931E+02  1.057000000E-01  0.00000E+00  9.000E+00
      13     1     3     3     0     0 -2.930084915E+01  1.135826779E+01 -4.814699561E+01  5.749516821E+01  1.057000000E-01  0.00000E+00  9.000E+00
       2     1     1     2   501     0  1.230287441E+01 -9.092887573E+00  2.298392605E+02  2.303480755E+02  3.300000000E-01  0.00000E+00  9.000E+00
       2     1     1     2   502     0  1.275701658E+01  6.884598348E+00  6.793320759E+01  6.946343470E+01  3.300000000E-01  0.00000E+00  9.000E+00
      -2     1     1     2     0   511  6.535239418E+01 -4.002783748E+01 -6.119861640E+01  9.807416962E+01  3.300000000E-01  0.00000E+00  9.000E+00
</event>
<event>
      8  10001  1.41148E-02  2.96035E+02 -1.00000E+00  1.07506E-01
       4    -1     0     0   501     0  0.000000000E+00  0.000000000E+00  9.302718097E+01  9.302718097E+01  0.000000000E+00  0.00000E+00  9.000E+00
      -2    -1     0     0     0   502  0.000000000E+00  0.000000000E+00 -5.401168600E+02  5.401168600E+02  0.000000000E+00  0.00000E+00  9.000E+00
      23     2     1     2     0     0 -1.327462161E+02 -1.096068120E+01 -1.573138927E+02  2.253987724E+02  9.118800000E+01  0.00000E+00  9.000E+00
     -13     1     3     3     0     0 -3.176228247E-01 -1.834105780E+01  1.592529803E+00  1.841310971E+01  1.057000000E-01  0.00000E+00  9.000E+00
      13     1     3     3     0     0 -1.324285933E+02  7.380376602E+00 -1.589064225E+02  2.069856627E+02  1.057000000E-01  0.00000E+00  9.000E+00
       4     1     1     2   511     0  9.689028255E+00  3.120787821E+00  2.863693028E+01  3.042926816E+01  1.500000000E+00  0.00000E+00  9.000E+00
      -2     1     1     2     0   502  8.531953559E+00  2.369523429E+01  1.153157859E+01  2.770098490E+01  3.300000000E-01  0.00000E+00  9.000E+00
      21     1     1     2   501   511  1.145252343E+02 -1.585534091E+01 -3.299442951E+02  3.496150154E+02  8.529922400E-06  0.00000E+00  9.000E+00
</event>
<event>
      8  10001  1.22070E-02  9.76184E+01 -1.00000E+00  1.26708E-01
       4    -1     0     0   501     0  0.000000000E+00  0.000000000E+00  7.488973760E+01  7.488973760E+01  0.000000000E+00  0.00000E+00  9.000E+00
       1    -1     0     0   502     0  0.000000000E+00  0.000000000E+00 -6.388389142E+02  6.388389142E+02  0.000000000E+00  0.00000E+00  9.000E+00
      23     2     1     2     0     0  6.124104713E+01  3.035235616E+00 -5.368686994E+02  5.479990240E+02  9.118800000E+01  0.00000E+00  9.000E+00
     -13     1     3     3     0     0 -1.954799231E+01  3.525705966E+00 -4.061808720E+01  4.521498409E+01  1.057000000E-01  0.00000E+00  9.000E+00
      13     1     3     3     0     0  8.078903944E+01 -4.904703502E-01 -4.962506122E+02  5.027840399E+02  1.057000000E-01  0.00000E+00  9.000E+00
       3     1     1     2   501     0 -8.072598015E+01  1.124640827E+01  1.344068894E+01  8.260791542E+01  5.000000000E-01  0.00000E+00  9.000E+00
       2     1     1     2   511     0  1.912261327E+01 -1.299530429E+01 -5.963517358E+01  6.396104361E+01  3.300000000E-01  0.00000E+00  9.000E+00
      21     1     1     2   502   511  3.623197469E-01 -1.286339594E+00  1.911400749E+01  1.916066877E+01  4.129530925E-07  0.00000E+00  9.000E+00
</event>
<event>
      8  10001  1.36096E-02  1.52871E+02 -1.00000E+00  1.18158E-01
       2    -1     0     0   501     0  0.000000000E+00  0.000000000E+00  1.870057366E+02  1.870057366E+02  0.000000000E+00  0.00000E+00  9.000E+00
      -2    -1     0     0     0   502  0.000000000E+00  0.000000000E+00 -1.129796411E+02  1.129796411E+02  0.000000000E+00  0.00000E+00  9.000E+00
      23     2     1     2     0     0  2.639820238E+01 -2.739813349E+01 -2.788658516E+01  1.026666245E+02  9.118800000E+01  0.00000E+00  9.000E+00
     -13     1     3     3     0     0  4.290309991E+00 -4.672262532E+01 -4.796302193E+01  6.709599930E+01  1.057000000E-01  0.00000E+00  9.000E+00
      13     1     3     3     0     0  2.210789239E+01  1.932449184E+01  2.007643677E+01  3.557062519E+01  1.057000000E-01  0.00000E+00  9.000E+00
       1     1     1     2   501     0  1.894564751E+01 -1.114479003E+00  3.427694254E+01  3.918159406E+01  3.300000000E-01  0.00000E+00  9.000E+00
      -1     1     1     2     0   512 -4.604243329E+01 -3.317284771E+01 -1.139349652E+01  5.788146639E+01  3.300000000E-01  0.00000E+00  9.000E+00
      21     1     1     2   512   502  6.985833987E-01  6.168546020E+01  7.902923460E+01  1.002556928E+02  0.000000000E+00  0.00000E+00  9.000E+00
</event>
<event>
      8  10001  1.28819E-02  1.23819E+02 -1.00000E+00  1.22024E-01
       1    -1     0     0   501     0  0.000000000E+00  0.000000000E+00  1.899361712E+02  1.899361712E+02  0.000000000E+00  0.00000E+00  9.000E+00
      -1    -1     0     0     0   502  0.000000000E+00  0.000000000E+00 -1.407842135E+02  1.407842135E+02  0.000000000E+00  0.00000E+00  9.000E+00
      23     2     1     2     0     0  1.603216299E+01  1.336309988E+01  1.248141146E+02  1.559789000E+02  9.118800000E+01  0.00000E+00  9.000E+00
     -13     1     3     3     0     0 -1.122571368E+01  4.001987199E+01  1.051788832E+02  1.130938347E+02  1.057000000E-01  0.00000E+00  9.000E+00
      13     1     3     3     0     0  2.725787666E+01 -2.665677211E+01  1.963523141E+01  4.288506529E+01  1.057000000E-01  0.00000E+00  9.000E+00
       2     1     1     2   511     0 -6.402630819E+01  2.184867999E+01 -4.796945817E+00  6.782221278E+01  3.300000000E-01  0.00000E+00  9.000E+00
      -2     1     1     2     0   502  3.224865425E+01 -6.963831187E+00 -4.770379981E+00  3.333670756E+01  3.300000000E-01  0.00000E+00  9.000E+00
      21     1     1     2   501   511  1.574549095E+01 -2.824794869E+01 -6.609483107E+01  7.358256441E+01  1.651812370E-06  0.00000E+00  9.000E+00
</event>
<event>
      8  10001  1.05134E-02  3.79544E+03 -1.00000E+00  7.99007E-02
       3    -1     0     0   501     0  0.000000000E+00  0.000000000E+00  1.151800894E+03  1.151800894E+03  0.000000000E+00  0.00000E+00  9.000E+00
       2    -1     0     0   502     0  0.000000000E+00  0.000000000E+00 -3.377742324E+03  3.377742324E+03  0.000000000E+00  0.00000E+00  9.000E+00
      23     2     1     2     0     0 -5.926886469E+01  1.756970796E+02 -2.607488639E+01  2.082724493E+02  9.118800000E+01  0.00000E+00  9.000E+00
     -13     1     3     3     0     0 -7.531172824E+01  1.151431924E+02  6.355644805E+00  1.377324092E+02  1.057000000E-01  0.00000E+00  9.000E+00
      13     1     3     3     0     0  1.604286355E+01  6.055388722E+01 -3.243053119E+01  7.054004008E+01  1.057000000E-01  0.00000E+00  9.000E+00
       4     1     1     2   511     0 -6.234803004E+02 -1.618192595E+02  3.343125465E+02  7.257274189E+02  1.500000000E+00  0.00000E+00  9.000E+00
       1     1     1     2   502     0 -3.872970315E+02 -9.647914802E+01  3.420236903E+02  5.256306025E+02  3.300000000E-01  0.00000E+00  9.000E+00
      21     1     1     2   501   511  1.070046197E+03  8.260132791E+01 -2.876202781E+03  3.069912748E+03  3.051757813E-05  0.00000E+00  9.000E+00
</event>
<event>
      8  10001  1.13783E-02  4.45263E+01 -1.00000E+00  1.45183E-01
       2    -1     0     0   501     0  0.000000000E+00  0.000000000E+00  1.998051008E+03  1.998051008E+03  0.000000000E+00  0.00000E+00  9.000E+00
      -2    -1     0     0     0   502  0.000000000E+00  0.000000000E+00 -1.237746380E+01  1.237746380E+01  0.000000000E+00  0.00000E+00  9.000E+00
      23     2     1     2     0     0 -3.063382274E+01 -2.395567526E+01  4.902532139E+02  5.001757397E+02  9.118800000E+01  0.00000E+00  9.000E+00
     -13     1     3     3     0     0 -2.054219038E+01  2.865091305E+01  9.539781423E+01  1.017035424E+02  1.057000000E-01  0.00000E+00  9.000E+00
      13     1     3     3     0     0 -1.009163236E+01 -5.260658831E+01  3.948553997E+02  3.984721973E+02  1.057000000E-01  0.00000E+00  9.000E+00
       1     1     1     2   511     0  2.769505495E+01 -4.788502435E+01  2.414129627E+02  2.476697783E+02  3.300000000E-01  0.00000E+00  9.000E+00
      -1     1     1     2     0   502  4.810529070E-01  7.347610035E+01  1.256544109E+03  1.258690659E+03  3.300000000E-01  0.00000E+00  9.000E+00
      21     1     1     2   501   511  2.457714884E+00 -1.635400732E+00 -2.536741615E+00  3.892294442E+00  4.383069611E-06  0.00000E+00  9.000E+00
</event>
<event>
      8  10001  2.07402E-02  4.83321E+01 -1.00000E+00  1.42997E-01
      21    -1     0     0   511   501  0.000000000E+00  0.000000000E+00  2.490958234E+02  2.490958234E+02  0.000000000E+00  0.00000E+00  9.000E+00
       4    -1     0     0   502     0  0.000000000E+00  0.000000000E+00 -9.765494052E+01  9.765494052E+01  0.000000000E+00  0.00000E+00  9.000E+00
      23     2     1     2     0     0 -3.822861201E+01  1.961813548E+01  1.218256710E+02  1.581235070E+02  9.118800000E+01  0.00000E+00  9.000E+00
     -13     1     3     3     0     0  5.452745293E+00 -3.199293187E+01  3.088902165E+01  4.480427382E+01  1.057000000E-01  0.00000E+00  9.000E+00
      13     1     3     3     0     0 -4.368135730E+01  5.161106735E+01  9.093664934E+01  1.133192332E+02  1.057000000E-01  0.00000E+00  9.000E+00
      -3     1     1     2     0   501  1.306589439E+01 -1.556723246E+01  3.340797201E+01  3.910753018E+01  5.000000000E-01  0.00000E+00  9.000E+00
       3     1     1     2   502     0  6.092068931E+00 -4.845577898E+01 -5.869841971E+01  7.635987361E+01  5.000000000E-01  0.00000E+00  9.000E+00
       4     1     1     2   511     0  1.907064868E+01  4.440487597E+01  5.490565957E+01  7.315985308E+01  1.500000000E+00  0.00000E+00  9.000E+00
</event>
<event>
      8  10001  1.25546E-02  1.20126E+02 -1.00000E+00  1.22601E-01
      -1    -1     0     0     0   501  0.000000000E+00  0.000000000E+00  4.657174684E+02  4.657174684E+02  0.000000000E+00  0.00000E+00  9.000E+00
       1    -1     0     0   502     0  0.000000000E+00  0.000000000E+00 -1.885994397E+02  1.885994397E+02  0.000000000E+00  0.00000E+00  9.000E+00
      23     2     1     2     0     0  1.677187195E+01  3.792843941E+01 -1.661053092E+02  1.939744501E+02  9.118800000E+01  0.00000E+00  9.000E+00
     -13     1     3     3     0     0 -1.452781135E+01  1.204703142E+01  3.825896091E+00  1.925712653E+01  1.057000000E-01  0.00000E+00  9.000E+00
      13     1     3     3     0     0  3.129968330E+01  2.588140799E+01 -1.699312053E+02  1.747173236E+02  1.057000000E-01  0.00000E+00  9.000E+00
      -2     1     1     2     0   501 -3.406069556E+01  1.963891247E+01  8.281197600E+01  9.167197028E+01  3.300000000E-01  0.00000E+00  9.000E+00
       2     1     1     2   511     0  4.201245037E+00  8.853770172E+00  5.200171573E+01  5.291811641E+01  3.300000000E-01  0.00000E+00  9.000E+00
      21     1     1     2   502   511  1.308757857E+01 -6.642112206E+01  3.084096461E+02  3.157523713E+02  1.265191952E-05  0.00000E+00  9.000E+00
</event>
<event>
      8  10001  2.62518E-02  3.16414E+01 -1.00000E+00  1.55077E-01
       2    -1     0     0   501     0  0.000000000E+00  0.000000000E+00  3.991452742E+02  3.991452742E+02  0.000000000E+00  0.00000E+00  9.000E+00
      -4    -1     0     0     0   502  0.000000000E+00  0.000000000E+00 -3.943234197E+01  3.943234197E+01  0.000000000E+00  0.00000E+00  9.000E+00
      23     2     1     2     0     0  2.407102060E+01  6.854812263E+01  2.470786562E+02  2.732057335E+02  9.118800000E+01  0.00000E+00  9.000E+00
     -13     1     3     3     0     0  5.468310662E+01  3.927517334E+01  1.936811890E+02  2.050492515E+02  1.057000000E-01  0.00000E+00  9.000E+00
      13     1     3     3     0     0 -3.061208602E+01  2.927294928E+01  5.339746717E+01  6.815648203E+01  1.057000000E-01  0.00000E+00  9.000E+00
       1     1     1     2   501     0 -1.267821535E+01 -7.016324761E+01  2.540208394E+01  7.569011315E+01  3.300000000E-01  0.00000E+00  9.000E+00
      -3     1     1     2     0   512 -7.043557746E+00 -1.922853748E+00  1.081069795E+01  1.305489420E+01  5.000000000E-01  0.00000E+00  9.000E+00
      21     1     1     2   512   502 -4.349247501E+00  3.537978735E+00  7.642149418E+01  7.662687531E+01  1.651812370E-06  0.00000E+00  9.000E+00
</event>
<event>
      8  10001  3.05061E-02  5.33756E+01 -1.00000E+00  1.40441E-01
       2    -1     0     0   501     0  0.000000000E+00  0.000000000E+00  1.131098643E+01  1.131098643E+01  0.000000000E+00  0.00000E+00  9.000E+00
      -2    -1     0     0     0   502  0.000000000E+00  0.000000000E+00 -6.710206919E+02  6.710206919E+02  0.000000000E+00  0.00000E+00  9.000E+00
      23     2     1     2     0     0  4.337858878E+00  1.596148240E+01 -2.146597766E+02  2.338111566E+02  9.118800000E+01  0.00000E+00  9.000E+00
     -13     1     3     3     0     0  2.314466418E+01  4.278744559E+01 -6.844710787E+01  8.397296427E+01  1.057000000E-01  0.00000E+00  9.000E+00
      13     1     3     3     0     0 -1.880680530E+01 -2.682596319E+01 -1.462126687E+02  1.498381924E+02  1.057000000E-01  0.00000E+00  9.000E+00
       2     1     1     2   501     0  1.141661279E+01  7.701912148E+00 -3.144969417E+02  3.147984971E+02  3.300000000E-01  0.00000E+00  9.000E+00
      -2     1     1     2     0   511  8.687092779E-02  1.187587484E-01 -1.860969196E+00  1.895720588E+00  3.300000000E-01  0.00000E+00  9.000E+00
      21     1     1     2   511   502 -1.584134260E+01 -2.378215329E+01 -1.286920180E+02  1.318263041E+02  1.907348633E-06  0.00000E+00  9.000E+00
</event>
<event>
      8  10001  1.10602E-02  2.78550E+02 -1.00000E+00  1.08405E-01
      -2    -1     0     0     0   501  0.000000000E+00  0.000000000E+00  4.840137633E+01  4.840137633E+01  0.000000000E+00  0.00000E+00  9.000E+00
       2    -1     0     0   502     0  0.000000000E+00  0.000000000E+00 -1.338849113E+03  1.338849113E+03  0.000000000E+00  0.00000E+00  9.000E+00
      23     2     1     2     0     0 -4.127134032E+01  4.342709957E+01 -2.009468883E+02  2.286572539E+02  9.118800000E+01  0.00000E+00  9.000E+00
     -13     1     3     3     0     0 -3.238478237E+01  3.054393631E+01 -2.071071565E+02  2.118374179E+02  1.057000000E-01  0.00000E+00  9.000E+00
      13     1     3     3     0     0 -8.886557953E+00  1.288316326E+01  6.160268185E+00  1.681983604E+01  1.057000000E-01  0.00000E+00  9.000E+00
      -1     1     1     2     0   501 -4.949601778E+01  1.167063446E+01 -8.066735403E+02  8.082749340E+02  3.300000000E-01  0.00000E+00  9.000E+00
       1     1     1     2   512     0  5.709264638E+01  3.250519069E+00 -2.768396134E+02  2.826843055E+02  3.300000000E-01  0.00000E+00  9.000E+00
      21     1     1     2   502   512  3.367471172E+01 -5.834825310E+01 -5.987694217E+00  6.763399538E+01  4.992578409E-06  0.00000E+00  9.000E+00
</event>
<event>
      8  10001  1.05725E-02  3.63681E+02 -1.00000E+00  1.04578E-01
       1    -1     0     0   501     0  0.000000000E+00  0.000000000E+00  5.646833870E+02  5.646833870E+02  0.000000000E+00  0.00000E+00  9.000E+00
      -3    -1     0     0     0   502  0.000000000E+00  0.000000000E+00 -4.190491864E+02  4.190491864E+02  0.000000000E+00  0.00000E+00  9.000E+00
      23     2     1     2     0     0  3.940395340E+01  9.695519588E+01  2.117747546E+02  2.532129135E+02  9.118800000E+01  0.00000E+00  9.000E+00
     -13     1     3     3     0     0  5.829599104E+01  2.653820817E+01  7.866133741E+01  1.014411960E+02  1.057000000E-01  0.00000E+00  9.000E+00
      13     1     3     3     0     0 -1.889203764E+01  7.041698771E+01  1.331134172E+02  1.517717176E+02  1.057000000E-01  0.00000E+00  9.000E+00
       2     1     1     2   501     0  1.606067340E+02  1.187505697E+01  3.134362757E+01  1.640672785E+02  3.300000000E-01  0.00000E+00  9.000E+00
      -4     1     1     2     0   511 -1.068073688E+02 -1.073712551E+02 -3.041300686E+02  3.397554254E+02  1.500000000E+00  0.00000E+00  9.000E+00
      21     1     1     2   511   502 -9.320331860E+01 -1.458997747E+00  2.066458870E+02  2.266969560E+02  0.000000000E+00  0.00000E+00  9.000E+00
</event>
<event>
      8  10001  1.09680E-02  9.77244E+01 -1.00000E+00  1.26685E-01
       1    -1     0     0   501     0  0.000000000E+00  0.000000000E+00  2.889502721E+02  2.889502721E+02  0.000000000E+00  0.00000E+00  9.000E+00
       2    -1     0     0   502     0  0.000000000E+00  0.000000000E+00 -2.388076175E+02  2.388076175E+02  0.000000000E+00  0.00000E+00  9.000E+00
      23     2     1     2     0     0  9.946808482E+01 -1.602114829E+02  8.965422420E+01  2.278480862E+02  9.118800000E+01  0.00000E+00  9.000E+00
     -13     1     3     3     0     0  2.863845033E+01 -3.435001831E+01 -1.749004823E+01  4.802080336E+01  1.057000000E-01  0.00000E+00  9.000E+00
      13     1     3     3     0     0  7.082963448E+01 -1.258614645E+02  1.071442724E+02  1.798272829E+02  1.057000000E-01  0.00000E+00  9.000E+00
       1     1     1     2   501     0 -7.133881797E+01  1.625798172E+02 -1.975857467E+01  1.786391169E+02  3.300000000E-01  0.00000E+00  9.000E+00
       2     1     1     2   512     0  1.309067669E+00  7.838278591E+00 -6.546698249E+01  6.594836591E+01  3.300000000E-01  0.00000E+00  9.000E+00
      21     1     1     2   502   512 -2.943833451E+01 -1.020661297E+01  4.571398758E+01  5.532232052E+01  1.168007728E-06  0.00000E+00  9.000E+00
</event>
<event>
      8  10001  1.06453E-02  2.45214E+02 -1.00000E+00  1.10337E-01
       2    -1     0     0   501     0  0.000000000E+00  0.000000000E+00  2.024679967E+03  2.024679967E+03  0.000000000E+00  0.00000E+00  9.000E+00
      -1    -1     0     0     0   502  0.000000000E+00  0.000000000E+00 -3.203565932E+01  3.203565932E+01  0.000000000E+00  0.00000E+00  9.000E+00
      23     2     1     2     0     0  8.335498158E-01 -9.919163599E+00  1.577218373E+02  1.824568824E+02  9.118800000E+01  0.00000E+00  9.000E+00
     -13     1     3     3     0     0 -1.563528993E+01 -1.922349482E+01  1.212908605E+00  2.480901780E+01  1.057000000E-01  0.00000E+00  9.000E+00
      13     1     3     3     0     0  1.646883975E+01  9.304331222E+00  1.565089287E+02  1.576478646E+02  1.057000000E-01  0.00000E+00  9.000E+00
       2     1     1     2   511     0 -2.144518216E+01  1.947835540E+01  5.156148880E+02  5.164282368E+02  3.300000000E-01  0.00000E+00  9.000E+00
      -1     1     1     2     0   502  1.355351044E+02  1.731262213E+01  1.102899146E+03  1.111330791E+03  3.300000000E-01  0.00000E+00  9.000E+00
      21     1     1     2   501   511 -1.149234721E+02 -2.687181393E+01  2.164084362E+02  2.464997162E+02  1.452593442E-05  0.00000E+00  9.000E+00
</event>
<event>
      8  10001  1.42731E-02  4.08351E+01 -1.00000E+00  1.47565E-01
       1    -1     0     0   501     0  0.000000000E+00  0.000000000E+00  1.139033111E+01  1.139033111E+01  0.000000000E+00  0.00000E+00  9.000E+00
       2    -1     0     0   502     0  0.000000000E+00  0.000000000E+00 -1.838178562E+03  1.838178562E+03  0.000000000E+00  0.00000E+00  9.000E+00
      23     2     1     2     0     0  3.014827259E+01  1.378861165E+01 -6.692503416E+02  6.762472294E+02  9.118800000E+01  0.00000E+00  9.000E+00
     -13     1     3     3     0     0  3.091358745E+01 -3.138268407E+01 -4.638523330E+02  4.659393960E+02  1.057000000E-01  0.00000E+00  9.000E+00
      13     1     3     3     0     0 -7.653148547E-01  4.517129572E+01 -2.053980086E+02  2.103078334E+02  1.057000000E-01  0.00000E+00  9.000E+00
       2     1     1     2   501     0 -8.046984588E+00 -3.663831797E+01 -1.084501916E+03  1.085150513E+03  3.300000000E-01  0.00000E+00  9.000E+00
       1     1     1     2   511     0 -1.731260245E+01  2.674687813E+01 -7.516563016E+01  8.164007932E+01  3.300000000E-01  0.00000E+00  9.000E+00
      21     1     1     2   502   511 -4.788685554E+00 -3.897171811E+00  2.129657059E+00  6.531071631E+00  7.083931162E-07  0.00000E+00  9.000E+00
</event>
<event>
      8  10001  1.25357E-02  2.96955E+01 -1.00000E+00  1.57071E-01
       3    -1     0     0   501     0  0.000000000E+00  0.000000000E+00  7.142707240E+01  7.142707240E+01  0.000000000E+00  0.00000E+00  9.000E+00
      -4    -1     0     0     0   502  0.000000000E+00  0.000000000E+00 -1.717481016E+02  1.717481016E+02  0.000000000E+00  0.00000E+00  9.000E+00
      23     2     1     2     0     0 -6.994994742E+01  1.307463341E+01 -6.410200035E+01  1.322431812E+02  9.118800000E+01  0.00000E+00  9.000E+00
     -13     1     3     3     0     0 -2.255724516E+01 -3.790330870E+01 -3.691552959E+01  5.751745489E+01  1.057000000E-01  0.00000E+00  9.000E+00
      13     1     3     3     0     0 -4.739270226E+01  5.097794210E+01 -2.718647076E+01  7.472572632E+01  1.057000000E-01  0.00000E+00  9.000E+00
       3     1     1     2   501     0  5.996268020E+01  1.088989951E+01 -2.441923029E+01  6.565562988E+01  5.000000000E-01  0.00000E+00  9.000E+00
      -4     1     1     2     0   512  1.312258227E+01 -1.980262871E+01 -2.288973483E+01  3.302326801E+01  1.500000000E+00  0.00000E+00  9.000E+00
      21     1     1     2   512   502 -3.135315044E+00 -4.161904205E+00  1.108993629E+01  1.225309487E+01  1.192092896E-07  0.00000E+00  9.000E+00
</event>
<event>
      8  10001  1.17166E-02  8.06268E+01 -1.00000E+00  1.30751E-01
       1    -1     0     0   501     0  0.000000000E+00  0.000000000E+00  2.646188550E+02  2.646188550E+02  0.000000000E+00  0.00000E+00  9.000E+00
      -1    -1     0     0     0   502  0.000000000E+00  0.000000000E+00 -7.349347476E+01  7.349347476E+01  0.000000000E+00  0.00000E+00  9.000E+00
      23     2     1     2     0     0  2.768188752E+01  6.222377150E+01  4.235923165E+01  1.214398637E+02  9.118800000E+01  0.00000E+00  9.000E+00
     -13     1     3     3     0     0  4.959987900E+01  1.212086804E+01 -1.887512248E+00  5.109439611E+01  1.057000000E-01  0.00000E+00  9.000E+00
      13     1     3     3     0     0 -2.191799149E+01  5.010290347E+01  4.424674390E+01  7.034546755E+01  1.057000000E-01  0.00000E+00  9.000E+00
       2     1     1     2   501     0 -3.263369062E+01 -5.248227236E+01  9.340475045E+01  1.119995669E+02  3.300000000E-01  0.00000E+00  9.000E+00
      -2     1     1     2     0   511  3.096036687E+01 -1.076549456E+01 -1.003910747E+01  3.428312659E+01  3.300000000E-01  0.00000E+00  9.000E+00
      21     1     1     2   511   502 -2.600856377E+01  1.023995414E+00  6.540050560E+01  7.038977261E+01  0.000000000E+00  0.00000E+00  9.000E+00
</event>
<event>
      8  10001  1.05606E-02  2.24945E+02 -1.00000E+00  1.11685E-01
       1    -1     0     0   501     0  0.000000000E+00  0.000000000E+00  7.652384517E+02  7.652384517E+02  0.000000000E+00  0.00000E+00  9.000E+00
       2    -1     0     0   502     0  0.000000000E+00  0.000000000E+00 -4.405075625E+02  4.405075625E+02  0.000000000E+00  0.00000E+00  9.000E+00
      23     2     1     2     0     0  1.078821142E+02  3.828357059E+02 -5.431580307E+01  4.116639237E+02  9.118800000E+01  0.00000E+00  9.000E+00
     -13     1     3     3     0     0 -1.219164308E+01  7.176418310E+01  5.097001525E+00  7.297071149E+01  1.057000000E-01  0.00000E+00  9.000E+00
      13     1     3     3     0     0  1.200737573E+02  3.110715228E+02 -5.941280459E+01  3.386932122E+02  1.057000000E-01  0.00000E+00  9.000E+00
       2     1     1     2   512     0  3.841002396E+01  9.674628863E+01  1.197341959E+02  1.586554786E+02  3.300000000E-01  0.00000E+00  9.000E+00
       1     1     1     2   502     0 -1.532593962E+02 -4.083178970E+02  3.205066694E+02  5.412361607E+02  3.300000000E-01  0.00000E+00  9.000E+00
      21     1     1     2   501   512  6.967258015E+00 -7.126409752E+01 -6.119417309E+01  9.419045121E+01  1.348699152E-06  0.00000E+00  9.000E+00
</event>
<event>
      8  10001  1.12668E-02  1.51607E+02 -1.00000E+00  1.18305E-01
       1    -1     0     0   501     0  0.000000000E+00  0.000000000E+00  3.430666968E+02  3.430666968E+02  0.000000000E+00  0.00000E+00  9.000E+00
       4    -1     0     0   502     0  0.000000000E+00  0.000000000E+00 -2.672925658E+02  2.672925658E+02  0.000000000E+00  0.00000E+00  9.000E+00
      23     2     1     2     0     0  2.522155537E+02  2.822853204E+01 -5.417327895E+01  2.750627765E+02  9.118800000E+01  0.00000E+00  9.000E+00
     -13     1     3     3     0     0  1.158601897E+02  1.442387279E+00 -6.973044238E+01  1.352331683E+02  1.057000000E-01  0.00000E+00  9.000E+00
      13     1     3     3     0     0  1.363553640E+02  2.678614477E+01  1.555716343E+01  1.398296082E+02  1.057000000E-01  0.00000E+00  9.000E+00
       2     1     1     2   501     0 -2.146330482E+02 -1.927538620E+01  5.861514403E+01  2.233265097E+02  3.300000000E-01  0.00000E+00  9.000E+00
       3     1     1     2   511     0  2.000216846E+01 -7.460484302E+00  1.445431758E+00  2.140291667E+01  5.000000000E-01  0.00000E+00  9.000E+00
      21     1     1     2   502   511 -5.758467390E+01 -1.492661545E+00  6.988683424E+01  9.056705972E+01  2.697398305E-06  0.00000E+00  9.000E+00
</event>
<event>
      8  10001  1.07819E-02  4.93841E+02 -1.00000E+00  1.00512E-01
      -4    -1     0     0     0   501  0.000000000E+00  0.000000000E+00  5.666400790E+02  5.666400790E+02  0.000000000E+00  0.00000E+00  9.000E+00
      -1    -1     0     0     0   502  0.000000000E+00  0.000000000E+00 -3.514690758E+02  3.514690758E+02  0.000000000E+00  0.00000E+00  9.000E+00
      23     2     1     2     0     0 -1.712978765E+01 -1.959753315E+02  1.498589833E+02  2.635767941E+02  9.118800000E+01  0.00000E+00  9.000E+00
     -13     1     3     3     0     0 -1.646032034E+01  2.896808649E+00  1.998346397E+01  2.605155755E+01  1.057000000E-01  0.00000E+00  9.000E+00
      13     1     3     3     0     0 -6.694673079E-01 -1.988721402E+02  1.298755193E+02  2.375252366E+02  1.057000000E-01  0.00000E+00  9.000E+00
      -4     1     1     2     0   512 -1.518035396E+01  6.578987085E+01 -7.638372185E+01  1.019581935E+02  1.500000000E+00  0.00000E+00  9.000E+00
      -1     1     1     2     0   502  2.111570717E+01 -5.121044698E+01 -1.771284834E+02  1.855882311E+02  3.300000000E-01  0.00000E+00  9.000E+00
      21     1     1     2   512   501  1.119443443E+01  1.813959077E+02  3.188242252E+02  3.669859361E+02  6.607249480E-06  0.00000E+00  9.000E+00
</event>
<event>
      8  10001  1.23308E-02  1.23879E+02 -1.00000E+00  1.22015E-01
       2    -1     0     0   501     0  0.000000000E+00  0.000000000E+00  2.749233000E+02  2.749233000E+02  0.000000000E+00  0.00000E+00  9.000E+00
      -4    -1     0     0     0   502  0.000000000E+00  0.000000000E+00 -1.258648815E+02  1.258648815E+02  0.000000000E+00  0.00000E+00  9.000E+00
      23     2     1     2     0     0  5.201493226E+01  4.416876080E+01  1.474286520E+02  1.862978566E+02  9.118800000E+01  0.00000E+00  9.000E+00
     -13     1     3     3     0     0  2.829649605E+01  1.280346286E+01  1.434495374E+02  1.467732990E+02  1.057000000E-01  0.00000E+00  9.000E+00
      13     1     3     3     0     0  2.371843621E+01  3.136529794E+01  3.979114628E+00  3.952455764E+01  1.057000000E-01  0.00000E+00  9.000E+00
       2     1     1     2   511     0 -2.938898710E+01 -4.285145360E+01 -6.495488722E+01  8.318176430E+01  3.300000000E-01  0.00000E+00  9.000E+00
      -4     1     1     2     0   502  2.725099513E+01 -3.828339483E+00 -1.811670392E+01  3.298087142E+01  1.500000000E+00  0.00000E+00  9.000E+00
      21     1     1     2   501   511 -4.987694029E+01  2.511032279E+00  8.470135763E+01  9.832768908E+01  9.536743164E-07  0.00000E+00  9.000E+00
</event>
<event>
      8  10001  1.05649E-02  9.12482E+02 -1.00000E+00  9.32515E-02
       1    -1     0     0   501     0  0.000000000E+00  0.000000000E+00  2.708325944E+02  2.708325944E+02  0.000000000E+00  0.00000E+00  9.000E+00
       2    -1     0     0   502     0  0.000000000E+00  0.000000000E+00 -1.535429223E+03  1.535429223E+03  0.000000000E+00  0.00000E+00  9.000E+00
      23     2     1     2     0     0  1.835338006E+01 -7.483711507E+01 -5.732717674E+02  5.855708420E+02  9.118800000E+01  0.00000E+00  9.000E+00
     -13     1     3     3     0     0  4.320393561E+01 -2.003531769E+01 -3.845647884E+02  3.875023634E+02  1.057000000E-01  0.00000E+00  9.000E+00
      13     1     3     3     0     0 -2.485055556E+01 -5.480179738E+01 -1.887069790E+02  1.980684785E+02  1.057000000E-01  0.00000E+00  9.000E+00
       2     1     1     2   501     0 -1.135178604E+02  2.952356257E+00  1.240372906E+01  1.142321427E+02  3.300000000E-01  0.00000E+00  9.000E+00
       1     1     1     2   511     0  7.087851276E+01  1.690646097E+02 -8.826066583E+02  9.014439683E+02  3.300000000E-01  0.00000E+00  9.000E+00
      21     1     1     2   502   511  2.428596759E+01 -9.717985084E+01  1.788780677E+02  2.050148647E+02  1.348699152E-05  0.00000E+00  9.000E+00
</event>
<event>
      8  10001  1.36177E-02  4.30544E+01 -1.00000E+00  1.46099E-01
      -2    -1     0     0     0   501  0.000000000E+00  0.000000000E+00  1.811513784E+01  1.811513784E+01  0.000000000E+00  0.00000E+00  9.000E+00
       2    -1     0     0   502     0  0.000000000E+00  0.000000000E+00 -4.247892893E+02  4.247892893E+02  0.000000000E+00  0.00000E+00  9.000E+00
      23     2     1     2     0     0  5.683612526E+00  9.934619664E+00 -2.481903775E+02  2.646596210E+02  9.118800000E+01  0.00000E+00  9.000E+00
     -13     1     3     3     0     0 -1.259843659E+01 -2.646540181E+01 -1.973460403E+02  1.995109242E+02  1.057000000E-01  0.00000E+00  9.000E+00
      13     1     3     3     0     0  1.828204912E+01  3.640002147E+01 -5.084433728E+01  6.514869676E+01  1.057000000E-01  0.00000E+00  9.000E+00
      -2     1     1     2     0   512 -1.180389775E+00 -2.120549711E-01  1.436880272E+00  1.900476847E+00  3.300000000E-01  0.00000E+00  9.000E+00
       2     1     1     2   502     0 -2.312412919E+01 -3.517898717E+01 -1.029571222E+02  1.112320295E+02  3.300000000E-01  0.00000E+00  9.000E+00
      21     1     1     2   512   501  1.862090644E+01  2.545642248E+01 -5.696353198E+01  6.511229974E+01  1.651812370E-06  0.00000E+00  9.000E+00
</event>
<event>
      8  10001  1.22431E-02  5.40723E+01 -1.00000E+00  1.40114E-01
      -2    -1     0     0     0   501  0.000000000E+00  0.000000000E+00  7.260527869E+01  7.260527869E+01  0.000000000E+00  0.00000E+00  9.000E+00
       1    -1     0     0   502     0  0.000000000E+00  0.000000000E+00 -5.297600158E+02  5.297600158E+02  0.000000000E+00  0.00000E+00  9.000E+00
      23     2     1     2     0     0 -1.000679227E+02  5.135761357E+00 -4.672178369E+02  4.864645143E+02  9.118800000E+01  0.00000E+00  9.000E+00
     -13     1     3     3     0     0 -1.066123216E+02 -2.053957710E+01 -3.897832620E+02  4.046221248E+02  1.057000000E-01  0.00000E+00  9.000E+00
      13     1     3     3     0     0  6.544398858E+00  2.567533846E+01 -7.743457493E+01  8.184238956E+01  1.057000000E-01  0.00000E+00  9.000E+00
      -2     1     1     2     0   501  4.624044575E+01  4.230600645E+00  1.048884198E+01  4.760463750E+01  3.300000000E-01  0.00000E+00  9.000E+00
       1     1     1     2   511     0  1.938687099E+01 -2.250022994E+01 -7.792271566E+00  3.070732014E+01  3.300000000E-01  0.00000E+00  9.000E+00
      21     1     1     2   502   511  3.444060598E+01  1.313386793E+01  7.366529376E+00  3.758882257E+01  1.770167637E-06  0.00000E+00  9.000E+00
</event>
<event>
      8  10001  1.08202E-02  2.61688E+02 -1.00000E+00  1.09343E-01
       2    -1     0     0   501     0  0.000000000E+00  0.000000000E+00  2.761173678E+03  2.761173678E+03  0.000000000E+00  0.00000E+00  9.000E+00
      -2    -1     0     0     0   502  0.000000000E+00  0.000000000E+00 -4.544107756E+01  4.544107756E+01  0.000000000E+00  0.00000E+00  9.000E+00
      23     2     1     2     0     0 -1.391901929E+01  6.344482501E+01  7.397814977E+02  7.482051193E+02  9.118800000E+01  0.00000E+00  9.000E+00
     -13     1     3     3     0     0 -2.839387488E+01  4.940096458E+01  1.976681516E+02  2.057167391E+02  1.057000000E-01  0.00000E+00  9.000E+00
      13     1     3     3     0     0  1.447485559E+01  1.404386044E+01  5.421133461E+02  5.424883802E+02  1.057000000E-01  0.00000E+00  9.000E+00
       2     1     1     2   501     0 -3.069911161E+00 -1.417809118E+02  1.054173036E+02  1.767036166E+02  3.300000000E-01  0.00000E+00  9.000E+00
      -2     1     1     2     0   512  6.753001840E+01  6.751090725E+01  4.401609100E+02  4.503995577E+02  3.300000000E-01  0.00000E+00  9.000E+00
      21     1     1     2   512   502 -5.054108795E+01  1.082517953E+01  1.430372890E+03  1.431306462E+03  1.525878906E-05  0.00000E+00  9.000E+00
</event>
<event>
      8  10001  1.25604E-02  2.39011E+02 -1.00000E+00  1.10734E-01
       1    -1     0     0   501     0  0.000000000E+00  0.000000000E+00  3.766621563E+02  3.766621563E+02  0.000000000E+00  0.00000E+00  9.000E+00
       2    -1     0     0   502     0  0.000000000E+00  0.000000000E+00 -1.004595007E+02  1.004595007E+02  0.000000000E+00  0.00000E+00  9.000E+00
      23     2     1     2     0     0  5.358522952E+01 -7.893070613E+01  6.414389044E+00  1.321280777E+02  9.118800000E+01  0.00000E+00  9.000E+00
     -13     1     3     3     0     0  5.770110016E+01 -6.952642566E+01 -2.928748129E+01  9.497951651E+01  1.057000000E-01  0.00000E+00  9.000E+00
      13     1     3     3     0     0 -4.115870641E+00 -9.404280473E+00  3.570187033E+01  3.714856121E+01  1.057000000E-01  0.00000E+00  9.000E+00
       2     1     1     2   501     0 -5.855836572E+01  5.172039235E+01  3.979577631E+01  8.768063579E+01  3.300000000E-01  0.00000E+00  9.000E+00
       1     1     1     2   511     0 -2.088865296E-01 -2.310739317E+01  1.359005619E+00  2.315061660E+01  3.300000000E-01  0.00000E+00  9.000E+00
      21     1     1     2   502   511  5.182022730E+00  5.031770694E+01  2.286334847E+02  2.341623269E+02  1.175768662E-05  0.00000E+00  9.000E+00
</event>
<event>
      8  10001  1.05553E-02  3.45678E+02 -1.00000E+00  1.05285E-01
       2    -1     0     0   501     0  0.000000000E+00  0.000000000E+00  3.637865635E+03  3.637865635E+03  0.000000000E+00  0.00000E+00  9.000E+00
       1    -1     0     0   502     0  0.000000000E+00  0.000000000E+00 -2.624620731E+02  2.624620731E+02  0.000000000E+00  0.00000E+00  9.000E+00
      23     2     1     2     0     0 -1.545786358E+02 -6.832450052E+01  2.894969462E+03  2.901331802E+03  9.118800000E+01  0.00000E+00  9.000E+00
     -13     1     3     3     0     0  9.694082028E+00  6.171962939E+00  2.045758804E+02  2.048984392E+02  1.057000000E-01  0.00000E+00  9.000E+00
      13     1     3     3     0     0 -1.642727178E+02 -7.449646346E+01  2.690393581E+03  2.696433363E+03  1.057000000E-01  0.00000E+00  9.000E+00
       1     1     1     2   501     0  2.922708306E+02  1.560380278E+02 -1.091594666E+02  3.488352083E+02  3.300000000E-01  0.00000E+00  9.000E+00
       2     1     1     2   512     0  6.041722599E+00 -3.430467933E+01 -5.822467623E+00  3.531746686E+01  3.300000000E-01  0.00000E+00  9.000E+00
      21     1     1     2   502   512 -1.437339174E+02 -5.340884792E+01  5.954160342E+02  6.148432303E+02  7.629394531E-06  0.00000E+00  9.000E+00
</event>
<event>
      8  10001  1.08183E-02  2.21347E+02 -1.00000E+00  1.11941E-01
       1    -1     0     0   501     0  0.000000000E+00  0.000000000E+00  2.423546528E+03  2.423546528E+03  0.000000000E+00  0.00000E+00  9.000E+00
       4    -1     0     0   502     0  0.000000000E+00  0.000000000E+00 -4.171660215E+01  4.171660215E+01  0.000000000E+00  0.00000E+00  9.000E+00
      23     2     1     2     0     0  4.019528263E+01  1.646687558E+01  1.596820298E+03  1.600011605E+03  9.118800000E+01  0.00000E+00  9.000E+00
     -13     1     3     3     0     0  3.169430453E+01 -3.593326279E+01  7.487598962E+02  7.502913578E+02  1.057000000E-01  0.00000E+00  9.000E+00
      13     1     3     3     0     0  8.500978102E+00  5.240013838E+01  8.480604023E+02  8.497202471E+02  1.057000000E-01  0.00000E+00  9.000E+00
       2     1     1     2   511     0  2.304062176E+01 -5.712587071E+01  1.626820001E+02  1.739533772E+02  3.300000000E-01  0.00000E+00  9.000E+00
       3     1     1     2   502     0 -8.550889879E+01  8.159173441E+01  6.326273598E+02  6.435733131E+02  5.000000000E-01  0.00000E+00  9.000E+00
      21     1     1     2   501   511  2.227299440E+01 -4.093273929E+01 -1.029973228E+01  4.772483536E+01  1.263506003E-05  0.00000E+00  9.000E+00
</event>
<event>
      8  10001  1.07322E-02  1.22481E+02 -1.00000E+00  1.22230E-01
      -1    -1     0     0     0   501  0.000000000E+00  0.000000000E+00  8.876367659E+01  8.876367659E+01  0.000000000E+00  0.00000E+00  9.000E+00
       1    -1     0     0   502     0  0.000000000E+00  0.000000000E+00 -1.377986304E+03  1.377986304E+03  0.000000000E+00  0.00000E+00  9.000E+00
      23     2     1     2     0     0 -1.724438402E+02 -2.718643186E+02 -4.304414064E+02  5.451991759E+02  9.118800000E+01  0.00000E+00  9.000E+00
     -13     1     3     3     0     0 -3.154254249E+01 -4.933456286E+01 -1.472018413E+02  1.584210350E+02  1.057000000E-01  0.00000E+00  9.000E+00
      13     1     3     3     0     0 -1.409012978E+02 -2.225297557E+02 -2.832395651E+02  3.867781409E+02  1.057000000E-01  0.00000E+00  9.000E+00
      -2     1     1     2     0   501  1.414017930E+02  1.719036672E+02 -6.312141944E+02  6.693106947E+02  3.300000000E-01  0.00000E+00  9.000E+00
       2     1     1     2   511     0 -3.840892254E+00  2.991666352E+00 -1.881054682E+01  1.943316991E+01  3.300000000E-01  0.00000E+00  9.000E+00
      21     1     1     2   502   511  3.488293951E+01  9.696898502E+01 -2.087564800E+02  2.328069404E+02  4.672030912E-06  0.00000E+00  9.000E+00
</event>
<event>
      8  10001  1.18715E-02  4.47085E+01 -1.00000E+00  1.45072E-01
       2    -1     0     0   501     0  0.000000000E+00  0.000000000E+00  5.012616536E+02  5.012616536E+02  0.000000000E+00  0.00000E+00  9.000E+00
      -3    -1     0     0     0   502  0.000000000E+00  0.000000000E+00 -1.919511673E+02  1.919511673E+02  0.000000000E+00  0.00000E+00  9.000E+00
      23     2     1     2     0     0  7.632948409E+01  8.427312037E+01 -1.529190216E+02  2.112525206E+02  9.118800000E+01  0.00000E+00  9.000E+00
     -13     1     3     3     0     0  7.430619009E+01  8.110800842E+01 -1.651652403E+02  1.984426534E+02  1.057000000E-01  0.00000E+00  9.000E+00
      13     1     3     3     0     0  2.023294002E+00  3.165111949E+00  1.224621872E+01  1.280986720E+01  1.057000000E-01  0.00000E+00  9.000E+00
       2     1     1     2   501     0 -3.818226600E+01 -4.422115481E+01  1.035683806E+02  1.189113718E+02  3.300000000E-01  0.00000E+00  9.000E+00
      -3     1     1     2     0   512 -3.939296630E+00 -1.580106431E+00  1.689074473E+01  1.742303222E+01  5.000000000E-01  0.00000E+00  9.000E+00
      21     1     1     2   512   502 -3.420792146E+01 -3.847185913E+01  3.417703825E+02  3.456258963E+02  5.394796609E-06  0.00000E+00  9.000E+00
</event>
<event>
      8  10001  1.42668E-02  5.11498E+01 -1.00000E+00  1.41527E-01
       2    -1     0     0   501     0  0.000000000E+00  0.000000000E+00  2.001948754E+01  2.001948754E+01  0.000000000E+00  0.00000E+00  9.000E+00
       1    -1     0     0   502     0  0.000000000E+00  0.000000000E+00 -5.485277825E+02  5.485277825E+02  0.000000000E+00  0.00000E+00  9.000E+00
      23     2     1     2     0     0 -5.614606300E+01  2.530327712E+01 -2.098913206E+02  2.369857675E+02  9.118800000E+01  0.00000E+00  9.000E+00
     -13     1     3     3     0     0 -5.101552116E+01 -2.427339879E+01 -8.067231439E+01  9.848763765E+01  1.057000000E-01  0.00000E+00  9.000E+00
      13     1     3     3     0     0 -5.130541842E+00  4.957667591E+01 -1.292190062E+02  1.384981299E+02  1.057000000E-01  0.00000E+00  9.000E+00
       1     1     1     2   511     0 -6.149562621E+00 -7.326057798E+00 -1.031482655E+01  1.407099108E+01  3.300000000E-01  0.00000E+00  9.000E+00
       2     1     1     2   502     0  5.265411630E+01 -6.607178216E+00 -1.628987176E+02  1.713248723E+02  3.300000000E-01  0.00000E+00  9.000E+00
      21     1     1     2   501   511  9.641509315E+00 -1.137004110E+01 -1.454034303E+02  1.461656392E+02  2.697398305E-06  0.00000E+00  9.000E+00
</event>
<event>
      8  10001  1.28213E-02  3.79605E+02 -1.00000E+00  1.03988E-01
       2    -1     0     0   501     0  0.000000000E+00  0.000000000E+00  4.719651059E+02  4.719651059E+02  0.000000000E+00  0.00000E+00  9.000E+00
      -2    -1     0     0     0   502  0.000000000E+00  0.000000000E+00 -3.631684051E+02  3.631684051E+02  0.000000000E+00  0.00000E+00  9.000E+00
      23     2     1     2     0     0 -8.866491733E+01  1.174581337E+02  6.412213422E-01  1.731286898E+02  9.118800000E+01  0.00000E+00  9.000E+00
     -13     1     3     3     0     0 -3.844154566E+01  7.480586052E+01  4.333725295E+01  9.461394118E+01  1.057000000E-01  0.00000E+00  9.000E+00
      13     1     3     3     0     0 -5.022337167E+01  4.265227318E+01 -4.269603160E+01  7.851474866E+01  1.057000000E-01  0.00000E+00  9.000E+00
       2     1     1     2   511     0 -6.263875548E+00 -8.545615382E+00  4.823299534E+00  1.164632120E+01  3.300000000E-01  0.00000E+00  9.000E+00
      -2     1     1     2     0   502  2.696592316E+01 -1.892083744E+01 -2.640297629E+02  2.660770259E+02  3.300000000E-01  0.00000E+00  9.000E+00
      21     1     1     2   501   511  6.796286972E+01 -8.999168087E+01  3.673619428E+02  3.842814740E+02  7.629394531E-06  0.00000E+00  9.000E+00
</event>
<event>
      8  10001  1.06539E-02  1.09993E+03 -1.00000E+00  9.12489E-02
       2    -1     0     0   501     0  0.000000000E+00  0.000000000E+00  2.955140575E+02  2.955140575E+02  0.000000000E+00  0.00000E+00  9.000E+00
       1    -1     0     0   502     0  0.000000000E+00  0.000000000E+00 -1.473998883E+03  1.473998883E+03  0.000000000E+00  0.00000E+00  9.000E+00
      23     2     1     2     0     0 -6.375606892E+01  9.217277834E+00  9.631802289E+01  1.474523903E+02  9.118800000E+01  0.00000E+00  9.000E+00
     -13     1     3     3     0     0 -4.960157626E+01  4.035445600E+01  9.330906610E+01  1.131167162E+02  1.057000000E-01  0.00000E+00  9.000E+00
      13     1     3     3     0     0 -1.415449266E+01 -3.113717817E+01  3.008956790E+00  3.433567416E+01  1.057000000E-01  0.00000E+00  9.000E+00
       2     1     1     2   511     0  7.568870103E+00 -1.052165815E+02  1.610369695E+00  1.055012749E+02  3.300000000E-01  0.00000E+00  9.000E+00
       1     1     1     2   502     0 -2.429090542E+01  1.316782945E+02  8.086839672E+01  1.564257901E+02  3.300000000E-01  0.00000E+00  9.000E+00
      21     1     1     2   501   511  8.047810423E+01 -3.567899081E+01 -1.357281615E+03  1.360133485E+03  5.060767808E-05  0.00000E+00  9.000E+00
</event>
<event>
      8  10001  1.06230E-02  3.32367E+02 -1.00000E+00  1.05839E-01
      -2    -1     0     0     0   501  0.000000000E+00  0.000000000E+00  9.082398886E+01  9.082398886E+01  0.000000000E+00  0.00000E+00  9.000E+00
       2    -1     0     0   502     0  0.000000000E+00  0.000000000E+00 -1.239237180E+03  1.239237180E+03  0.000000000E+00  0.00000E+00  9.000E+00
      23     2     1     2     0     0 -7.807378224E+00  3.571596417E+01 -6.809231388E+02  6.879739512E+02  9.118800000E+01  0.00000E+00  9.000E+00
     -13     1     3     3     0     0 -1.062230188E+01  5.634848371E+01 -2.476924764E+02  2.542431099E+02  1.057000000E-01  0.00000E+00  9.000E+00
      13     1     3     3     0     0  2.814923660E+00 -2.063251954E+01 -4.332306624E+02  4.337308413E+02  1.057000000E-01  0.00000E+00  9.000E+00
      -1     1     1     2     0   501  7.633858323E+01 -1.148224375E+02 -9.417669027E+01  1.669764335E+02  3.300000000E-01  0.00000E+00  9.000E+00
       1     1     1     2   511     0 -3.391118231E+01  5.899365057E+01 -4.130993124E+02  4.186661795E+02  3.300000000E-01  0.00000E+00  9.000E+00
      21     1     1     2   502   511 -3.462002270E+01  2.011282274E+01  3.978595001E+01  5.644460495E+01  3.303624740E-06  0.00000E+00  9.000E+00
</event>
<event>
      8  10001  1.10295E-02  3.83695E+02 -1.00000E+00  1.03842E-01
      -1    -1     0     0     0   501  0.000000000E+00  0.000000000E+00  8.574809688E+02  8.574809688E+02  0.000000000E+00  0.00000E+00  9.000E+00
      -2    -1     0     0     0   502  0.000000000E+00  0.000000000E+00 -1.067165367E+02  1.067165367E+02  0.000000000E+00  0.00000E+00  9.000E+00
      23     2     1     2     0     0  4.830166940E+01  1.252740048E+02  6.689267279E+02  6.883348358E+02  9.118800000E+01  0.00000E+00  9.000E+00
     -13     1     3     3     0     0  6.631812548E+01  5.294914806E+01  4.200454060E+02  4.285322162E+02  1.057000000E-01  0.00000E+00  9.000E+00
      13     1     3     3     0     0 -1.801645609E+01  7.232485672E+01  2.488813219E+02  2.598026196E+02  1.057000000E-01  0.00000E+00  9.000E+00
      -2     1     1     2     0   512  9.880073391E-01  2.373581219E+01  6.133095011E+01  6.577202506E+01  3.300000000E-01  0.00000E+00  9.000E+00
      -1     1     1     2     0   502 -7.673007265E+01 -5.985681262E+01  5.361590501E+01  1.111085786E+02  3.300000000E-01  0.00000E+00  9.000E+00
      21     1     1     2   512   501  2.744039591E+01 -8.915300435E+01 -3.310915094E+01  9.898206599E+01  2.523185073E-06  0.00000E+00  9.000E+00
</event>
<event>
      8  10001  1.28698E-02  1.78016E+02 -1.00000E+00  1.15517E-01
       3    -1     0     0   501     0  0.000000000E+00  0.000000000E+00  2.127446248E+02  2.127446248E+02  0.000000000E+00  0.00000E+00  9.000E+00
       2    -1     0     0   502     0  0.000000000E+00  0.000000000E+00 -3.493705582E+02  3.493705582E+02  0.000000000E+00  0.00000E+00  9.000E+00
      23     2     1     2     0     0  5.408761640E+01  8.033869608E+01 -1.001134727E+02  1.664864411E+02  9.118800000E+01  0.00000E+00  9.000E+00
     -13     1     3     3     0     0  5.840652249E+01  7.864120302E+01 -1.148994928E+02  1.509889576E+02  1.057000000E-01  0.00000E+00  9.000E+00
      13     1     3     3     0     0 -4.318906095E+00  1.697493055E+00  1.478602017E+01  1.549748358E+01  1.057000000E-01  0.00000E+00  9.000E+00
       4     1     1     2   511     0 -2.892121072E+00  3.479681751E+00 -1.958489870E+00  5.153467954E+00  1.500000000E+00  0.00000E+00  9.000E+00
       1     1     1     2   502     0 -4.847668185E+01 -1.110977074E+02  1.562260538E+02  1.977356267E+02  3.300000000E-01  0.00000E+00  9.000E+00
      21     1     1     2   501   511 -2.718813473E+00  2.727932955E+01 -1.907800247E+02  1.927396472E+02  8.092194914E-06  0.00000E+00  9.000E+00
</event>
<event>
      8  10001  1.37549E-02  5.95396E+01 -1.00000E+00  1.37733E-01
      -3    -1     0     0     0   501  0.000000000E+00  0.000000000E+00  5.452249786E+02  5.452249786E+02  0.000000000E+00  0.00000E+00  9.000E+00
      -2    -1     0     0     0   502  0.000000000E+00  0.000000000E+00 -4.691633017E+01  4.691633017E+01  0.000000000E+00  0.00000E+00  9.000E+00
      23     2     1     2     0     0  9.767742992E+01 -1.336386900E+01  1.393432482E+02  1.935232944E+02  9.118800000E+01  0.00000E+00  9.000E+00
     -13     1     3     3     0     0  9.214509653E+00 -4.065438962E+01  4.135506217E+01  5.871915295E+01  1.057000000E-01  0.00000E+00  9.000E+00
      13     1     3     3     0     0  8.846292026E+01  2.729052061E+01  9.798818608E+01  1.348041415E+02  1.057000000E-01  0.00000E+00  9.000E+00
      -4     1     1     2     0   501 -9.048907759E+01  1.084264663E+01  2.780057226E+02  2.925666898E+02  1.500000000E+00  0.00000E+00  9.000E+00
      -1     1     1     2     0   511  1.380083005E+01  1.118249510E+01 -3.914973436E+00  1.819194942E+01  3.300000000E-01  0.00000E+00  9.000E+00
      21     1     1     2   511   502 -2.098918238E+01 -8.661272724E+00  8.487465102E+01  8.785937518E+01  9.536743164E-07  0.00000E+00  9.000E+00
</event>
<event>
      8  10001  1.06363E-02  2.63933E+02 -1.00000E+00  1.09214E-01
       1    -1     0     0   501     0  0.000000000E+00  0.000000000E+00  1.115970234E+03  1.115970234E+03  0.000000000E+00  0.00000E+00  9.000E+00
       2    -1     0     0   502     0  0.000000000E+00  0.000000000E+00 -2.636900633E+02  2.636900633E+02  0.000000000E+00  0.00000E+00  9.000E+00
      23     2     1     2     0     0  3.152326338E+02  3.360025218E+01  7.679676430E+02  8.358170508E+02  9.118800000E+01  0.00000E+00  9.000E+00
     -13     1     3     3     0     0  6.001000344E+01  1.311197166E+01  2.576155998E+02  2.648375592E+02  1.057000000E-01  0.00000E+00  9.000E+00
      13     1     3     3     0     0  2.552226303E+02  2.048828053E+01  5.103520432E+02  5.709794916E+02  1.057000000E-01  0.00000E+00  9.000E+00
       2     1     1     2   512     0 -2.001696768E+01 -6.706430609E+01  6.490885282E+01  9.545453484E+01  3.300000000E-01  0.00000E+00  9.000E+00
       1     1     1     2   502     0 -3.190943646E+02  8.364393495E+01  1.051331726E+02  3.462233589E+02  3.300000000E-01  0.00000E+00  9.000E+00
      21     1     1     2   501   512  2.387869848E+01 -5.017988104E+01 -8.572949724E+01  1.021653532E+02  9.631638468E-06  0.00000E+00  9.000E+00
</event>
<event>
      8  10001  1.23577E-02  1.26443E+02 -1.00000E+00  1.21628E-01
       2    -1     0     0   501     0  0.000000000E+00  0.000000000E+00  1.219934446E+03  1.219934446E+03  0.000000000E+00  0.00000E+00  9.000E+00
       4    -1     0     0   502     0  0.000000000E+00  0.000000000E+00 -2.814894272E+01  2.814894272E+01  0.000000000E+00  0.00000E+00  9.000E+00
      23     2     1     2     0     0  1.042983356E+02 -1.011385172E+02  5.868812799E+02  6.114344041E+02  9.118800000E+01  0.00000E+00  9.000E+00
     -13     1     3     3     0     0  3.774848046E+00 -3.470275930E+01  4.863359089E+01  5.986458316E+01  1.057000000E-01  0.00000E+00  9.000E+00
      13     1     3     3     0     0  1.005234875E+02 -6.643575793E+01  5.382476890E+02  5.515698209E+02  1.057000000E-01  0.00000E+00  9.000E+00
       2     1     1     2   511     0  4.001891014E+00  2.294447415E+00  4.674792568E+01  4.697613305E+01  3.300000000E-01  0.00000E+00  9.000E+00
       4     1     1     2   502     0 -8.837428983E+01  7.491406329E+01  5.426583529E+02  5.548896016E+02  1.500000000E+00  0.00000E+00  9.000E+00
      21     1     1     2   501   511 -1.992593677E+01  2.393000653E+01  1.549794435E+01  3.478324953E+01  2.139134222E-06  0.00000E+00  9.000E+00
</event>
<event>
      8  10001  2.40920E-02  2.31526E+01 -1.00000E+00  1.65426E-01
      -4    -1     0     0     0   501  0.000000000E+00  0.000000000E+00  2.253824787E+01  2.253824787E+01  0.000000000E+00  0.00000E+00  9.000E+00
       2    -1     0     0   502     0  0.000000000E+00  0.000000000E+00 -6.260406456E+02  6.260406456E+02  0.000000000E+00  0.00000E+00  9.000E+00
      23     2     1     2     0     0  4.629866850E+01 -1.013286467E+01 -5.720249807E+02  5.811833373E+02  9.118800000E+01  0.00000E+00  9.000E+00
     -13     1     3     3     0     0 -1.100655144E+00 -2.950745369E+01 -6.285971451E+01  6.944966627E+01  1.057000000E-01  0.00000E+00  9.000E+00
      13     1     3     3     0     0  4.739932364E+01  1.937458902E+01 -5.091652662E+02  5.117336710E+02  1.057000000E-01  0.00000E+00  9.000E+00
      -4     1     1     2     0   511 -6.072703210E+00  1.827020410E+00  2.886242388E+00  7.127139888E+00  1.500000000E+00  0.00000E+00  9.000E+00
       2     1     1     2   502     0 -1.658531240E+01  5.573519820E-01  1.450681839E+00  1.666123064E+01  3.300000000E-01  0.00000E+00  9.000E+00
      21     1     1     2   511   501 -2.364065289E+01  7.748492279E+00 -3.581434131E+01  4.360718570E+01  1.348699152E-06  0.00000E+00  9.000E+00
</event>
<event>
      8  10001  2.13817E-02  1.47320E+02 -1.00000E+00  1.18818E-01
       4    -1     0     0   501     0  0.000000000E+00  0.000000000E+00  3.292916456E+02  3.292916456E+02  0.000000000E+00  0.00000E+00  9.000E+00
       1    -1     0     0   502     0  0.000000000E+00  0.000000000E+00 -1.425602931E+02  1.425602931E+02  0.000000000E+00  0.00000E+00  9.000E+00
      23     2     1     2     0     0 -4.749023555E+00 -3.505388852E+01  2.529522991E+02  2.712036971E+02  9.118800000E+01  0.00000E+00  9.000E+00
     -13     1     3     3     0     0 -3.666807629E+01 -4.338119613E+01  2.069007984E+02  2.145563505E+02  1.057000000E-01  0.00000E+00  9.000E+00
      13     1     3     3     0     0  3.191905273E+01  8.327307611E+00  4.605150074E+01  5.664734656E+01  1.057000000E-01  0.00000E+00  9.000E+00
       3     1     1     2   511     0  1.426900775E+01  3.662638662E+01 -1.219216181E+01  4.115817766E+01  5.000000000E-01  0.00000E+00  9.000E+00
       2     1     1     2   502     0 -1.514453015E+01  9.480155990E+00  5.084069968E+01  5.388984872E+01  3.300000000E-01  0.00000E+00  9.000E+00
      21     1     1     2   501   511  5.624545957E+00 -1.105265409E+01 -1.048694845E+02  1.056002152E+02  1.348699152E-06  0.00000E+00  9.000E+00
</event>
<event>
      8  10001  1.19469E-02  5.41138E+01 -1.00000E+00  1.40095E-01
       4    -1     0     0   501     0  0.000000000E+00  0.000000000E+00  1.140902326E+01  1.140902326E+01  0.000000000E+00  0.00000E+00  9.000E+00
       2    -1     0     0   502     0  0.000000000E+00  0.000000000E+00 -2.588422734E+03  2.588422734E+03  0.000000000E+00  0.00000E+00  9.000E+00
      23     2     1     2     0     0  6.771683733E+01 -8.537255022E+01 -6.919675752E+02  7.064052795E+02  9.118800000E+01  0.00000E+00  9.000E+00
     -13     1     3     3     0     0 -2.862097402E-01 -6.329366670E+01 -2.154877681E+02  2.245910941E+02  1.057000000E-01  0.00000E+00  9.000E+00
      13     1     3     3     0     0  6.800304707E+01 -2.207888352E+01 -4.764798071E+02  4.818141854E+02  1.057000000E-01  0.00000E+00  9.000E+00
       4     1     1     2   501     0 -7.607477353E+01  6.159597086E+01 -1.599422272E+03  1.602415455E+03  1.500000000E+00  0.00000E+00  9.000E+00
       2     1     1     2   511     0  8.088942067E+00 -8.439842538E+00 -1.806938324E+01  2.152378769E+01  3.300000000E-01  0.00000E+00  9.000E+00
      21     1     1     2   502   511  2.689941363E-01  3.221642190E+01 -2.675544796E+02  2.694872348E+02  3.814697266E-06  0.00000E+00  9.000E+00
</event>
<event>
      8  10001  1.10597E-02  1.31451E+02 -1.00000E+00  1.20901E-01
       2    -1     0     0   501     0  0.000000000E+00  0.000000000E+00  3.638670012E+03  3.638670012E+03  0.000000000E+00  0.00000E+00  9.000E+00
      -2    -1     0     0     0   502  0.000000000E+00  0.000000000E+00 -5.336762732E+01  5.336762732E+01  0.000000000E+00  0.00000E+00  9.000E+00
      23     2     1     2     0     0  8.453113966E+01 -6.348231290E+00  3.032176990E+03  3.034732009E+03  9.118800000E+01  0.00000E+00  9.000E+00
     -13     1     3     3     0     0  6.909115883E+01 -4.079722662E+01  1.551038395E+03  1.553112397E+03  1.057000000E-01  0.00000E+00  9.000E+00
      13     1     3     3     0     0  1.543998083E+01  3.444899533E+01  1.481138595E+03  1.481619612E+03  1.057000000E-01  0.00000E+00  9.000E+00
       2     1     1     2   501     0 -7.936863332E+01 -3.888580056E+01 -6.783668732E+00  8.864317516E+01  3.300000000E-01  0.00000E+00  9.000E+00
      -2     1     1     2     0   512 -1.473374288E+01  7.120614536E+00  1.458095615E+01  2.192029911E+01  3.300000000E-01  0.00000E+00  9.000E+00
      21     1     1     2   512   502  9.571236541E+00  3.811341731E+01  5.453281067E+02  5.467421559E+02  0.000000000E+00  0.00000E+00  9.000E+00
</event>
<event>
      8  10001  1.07630E-02  5.57618E+02 -1.00000E+00  9.89858E-02
       2    -1     0     0   501     0  0.000000000E+00  0.000000000E+00  3.020896350E+02  3.020896350E+02  0.000000000E+00  0.00000E+00  9.000E+00
       1    -1     0     0   502     0  0.000000000E+00  0.000000000E+00 -9.887276288E+02  9.887276288E+02  0.000000000E+00  0.00000E+00  9.000E+00
      23     2     1     2     0     0 -7.385918291E+01  2.556311075E+02  1.800963387E+02  3.339945877E+02  9.118800000E+01  0.00000E+00  9.000E+00
     -13     1     3     3     0     0 -6.638827560E+01  8.199915473E+01  4.914682720E+01  1.163902329E+02  1.057000000E-01  0.00000E+00  9.000E+00
      13     1     3     3     0     0 -7.470907304E+00  1.736319528E+02  1.309495115E+02  2.176043548E+02  1.057000000E-01  0.00000E+00  9.000E+00
       1     1     1     2   511     0  2.764359092E+01 -1.105743276E+01  1.922223115E+01  3.544062652E+01  3.300000000E-01  0.00000E+00  9.000E+00
       2     1     1     2   502     0 -9.928976660E-02 -1.112914542E+02 -3.583765924E+02  3.752594949E+02  3.300000000E-01  0.00000E+00  9.000E+00
      21     1     1     2   501   511  4.631488175E+01 -1.332822205E+02 -5.275799714E+02  5.461225547E+02  1.321449896E-05  0.00000E+00  9.000E+00
</event>
<event>
      8  10001  1.36275E-02  5.34184E+01 -1.00000E+00  1.40421E-01
       3    -1     0     0   501     0  0.000000000E+00  0.000000000E+00  7.378397117E+01  7.378397117E+01  0.000000000E+00  0.00000E+00  9.000E+00
       2    -1     0     0   502     0  0.000000000E+00  0.000000000E+00 -1.538545613E+03  1.538545613E+03  0.000000000E+00  0.00000E+00  9.000E+00
      23     2     1     2     0     0 -2.668368263E+01  6.538863097E+01 -1.485222445E+03  1.489694148E+03  9.118800000E+01  0.00000E+00  9.000E+00
     -13     1     3     3     0     0  2.558685677E+01  3.814490324E+01 -9.744253344E+02  9.755072856E+02  1.057000000E-01  0.00000E+00  9.000E+00
      13     1     3     3     0     0 -5.227053940E+01  2.724372773E+01 -5.107971110E+02  5.141868627E+02  1.057000000E-01  0.00000E+00  9.000E+00
       3     1     1     2   501     0  2.278787746E-01 -7.460295189E+01  1.301491845E+01  7.573170050E+01  5.000000000E-01  0.00000E+00  9.000E+00
       2     1     1     2   511     0  2.034245912E+01  1.426836706E+01 -1.073386596E+01  2.706892536E+01  3.300000000E-01  0.00000E+00  9.000E+00
      21     1     1     2   502   511  6.113344728E+00 -5.054046139E+00  1.817975070E+01  1.983481035E+01  1.215700987E-06  0.00000E+00  9.000E+00
</event>
<event>
      8  10001  1.07402E-02  1.82813E+02 -1.00000E+00  1.15068E-01
      -1    -1     0     0     0   501  0.000000000E+00  0.000000000E+00  2.389120267E+02  2.389120267E+02  0.000000000E+00  0.00000E+00  9.000E+00
       3    -1     0     0   502     0  0.000000000E+00  0.000000000E+00 -6.879882190E+02  6.879882190E+02  0.000000000E+00  0.00000E+00  9.000E+00
      23     2     1     2     0     0  6.525161948E+01  1.362640725E+01 -4.987374678E+02  5.113685227E+02  9.118800000E+01  0.00000E+00  9.000E+00
     -13     1     3     3     0     0 -1.694801526E-01  3.984178088E+01 -1.304748670E+02  1.364224994E+02  1.057000000E-01  0.00000E+00  9.000E+00
      13     1     3     3     0     0  6.542109964E+01 -2.621537363E+01 -3.682626008E+02  3.749460233E+02  1.057000000E-01  0.00000E+00  9.000E+00
      -2     1     1     2     0   501 -2.511313913E+01 -6.602093999E+01  1.647348160E+02  1.792403492E+02  3.300000000E-01  0.00000E+00  9.000E+00
       4     1     1     2   512     0 -3.894330565E+01  3.779547534E+01 -1.705143078E+02  1.789481997E+02  1.500000000E+00  0.00000E+00  9.000E+00
      21     1     1     2   502   512 -1.195174704E+00  1.459905741E+01  5.544076743E+01  5.734317407E+01  1.651812370E-06  0.00000E+00  9.000E+00
</event>
<event>
      8  10001  1.23927E-02  5.50281E+01 -1.00000E+00  1.39675E-01
       2    -1     0     0   501     0  0.000000000E+00  0.000000000E+00  2.395651771E+03  2.395651771E+03  0.000000000E+00  0.00000E+00  9.000E+00
      -2    -1     0     0     0   502  0.000000000E+00  0.000000000E+00 -1.075020177E+02  1.075020177E+02  0.000000000E+00  0.00000E+00  9.000E+00
      23     2     1     2     0     0 -1.255081342E+01  1.387017757E+01  2.259104891E+03  2.261021907E+03  9.118800000E+01  0.00000E+00  9.000E+00
     -13     1     3     3     0     0  5.660063462E+00 -1.016120702E+01  2.018700196E+03  2.018733707E+03  1.057000000E-01  0.00000E+00  9.000E+00
      13     1     3     3     0     0 -1.821087688E+01  2.403138458E+01  2.404046949E+02  2.422882002E+02  1.057000000E-01  0.00000E+00  9.000E+00
       2     1     1     2   511     0 -6.871239591E+00  8.057258866E+00 -5.208392087E-01  1.060723939E+01  3.300000000E-01  0.00000E+00  9.000E+00
      -2     1     1     2     0   502  1.169667922E+01 -2.244905568E+01 -9.927475160E+01  1.024517331E+02  3.300000000E-01  0.00000E+00  9.000E+00
      21     1     1     2   501   511  7.725373796E+00  5.216192500E-01  1.288404527E+02  1.290729087E+02  1.907348633E-06  0.00000E+00  9.000E+00
</event>
<event>
      8  10001  1.62505E-02  7.66515E+01 -1.00000E+00  1.31864E-01
      -3    -1     0     0     0   501  0.000000000E+00  0.000000000E+00  1.195503389E+02  1.195503389E+02  0.000000000E+00  0.00000E+00  9.000E+00
       1    -1     0     0   502     0  0.000000000E+00  0.000000000E+00 -1.449044895E+02  1.449044895E+02  0.000000000E+00  0.00000E+00  9.000E+00
      23     2     1     2     0     0  4.025321452E+00  2.833102333E+01  5.351847360E+01  1.095368817E+02  9.118800000E+01  0.00000E+00  9.000E+00
     -13     1     3     3     0     0 -3.648777314E+01 -3.468092726E+00  4.382233821E+01  5.712962240E+01  1.057000000E-01  0.00000E+00  9.000E+00
      13     1     3     3     0     0  4.051309460E+01  3.179911605E+01  9.696135389E+00  5.240725932E+01  1.057000000E-01  0.00000E+00  9.000E+00
      -3     1     1     2     0   511  6.245700534E+00 -3.802418321E+00 -2.364184472E+01  2.475184806E+01  5.000000000E-01  0.00000E+00  9.000E+00
       1     1     1     2   502     0 -1.427207239E+01 -2.229142118E+01 -9.065800123E+01  9.444353655E+01  3.300000000E-01  0.00000E+00  9.000E+00
      21     1     1     2   511   501  4.001050405E+00 -2.237183825E+00  3.542722181E+01  3.572256207E+01  4.768371582E-07  0.00000E+00  9.000E+00
</event>
<event>
      8  10001  1.09934E-02  5.67306E+02 -1.00000E+00  9.87731E-02
       2    -1     0     0   501     0  0.000000000E+00  0.000000000E+00  4.155082854E+02  4.155082854E+02  0.000000000E+00  0.00000E+00  9.000E+00
       2    -1     0     0   502     0  0.000000000E+00  0.000000000E+00 -3.885933032E+02  3.885933032E+02  0.000000000E+00  0.00000E+00  9.000E+00
      23     2     1     2     0     0 -3.513926716E+01  1.043347468E+01  7.499300363E+01  1.236237333E+02  9.118800000E+01  0.00000E+00  9.000E+00
     -13     1     3     3     0     0 -6.064131583E+01  1.860981862E+01  7.308698107E+01  9.677506140E+01  1.057000000E-01  0.00000E+00  9.000E+00
      13     1     3     3     0     0  2.550204867E+01 -8.176343941E+00  1.906022556E+00  2.684867187E+01  1.057000000E-01  0.00000E+00  9.000E+00
       2     1     1     2   511     0  3.988900789E+01 -6.864282506E+00 -7.109259036E+01  8.180780299E+01  3.300000000E-01  0.00000E+00  9.000E+00
       2     1     1     2   502     0 -5.286838040E+01  1.062377076E+01 -2.832429383E+02  2.883307148E+02  3.300000000E-01  0.00000E+00  9.000E+00
      21     1     1     2   501   511  4.811863966E+01 -1.419296294E+01  3.062575072E+02  3.103393375E+02  6.607249480E-06  0.00000E+00  9.000E+00
</event>
<event>
      8  10001  1.08887E+00  6.55622E+00 -1.00000E+00  2.27600E-01
       2    -1     0     0   501     0  0.000000000E+00  0.000000000E+00  4.916132615E+03  4.916132615E+03  0.000000000E+00  0.00000E+00  9.000E+00
      -4    -1     0     0     0   502  0.000000000E+00  0.000000000E+00 -1.641829429E+00  1.641829429E+00  0.000000000E+00  0.00000E+00  9.000E+00
      23     2     1     2     0     0 -5.574275274E+00  5.695795192E+00  4.658988673E+03  4.659887791E+03  9.118800000E+01  0.00000E+00  9.000E+00
     -13     1     3     3     0     0 -3.954449231E+01 -5.594345177E+00  1.109472356E+03  1.110190967E+03  1.057000000E-01  0.00000E+00  9.000E+00
      13     1     3     3     0     0  3.397021704E+01  1.129014037E+01  3.549516317E+03  3.549696823E+03  1.057000000E-01  0.00000E+00  9.000E+00
       2     1     1     2   511     0  5.989332513E+00 -5.359217415E+00  5.991326491E+01  6.045081908E+01  3.300000000E-01  0.00000E+00  9.000E+00
      -4     1     1     2     0   502 -3.047376260E+00  1.228055079E+00  2.667064204E+00  4.489749749E+00  1.500000000E+00  0.00000E+00  9.000E+00
      21     1     1     2   501   511  2.632319020E+00 -1.564632856E+00  1.929217839E+02  1.929460855E+02  2.697398305E-06  0.00000E+00  9.000E+00
</event>
<event>
      8  10001  1.25327E-02  1.54561E+02 -1.00000E+00  1.17963E-01
       1    -1     0     0   501     0  0.000000000E+00  0.000000000E+00  1.237140705E+01  1.237140705E+01  0.000000000E+00  0.00000E+00  9.000E+00
       1    -1     0     0   502     0  0.000000000E+00  0.000000000E+00 -1.581076604E+03  1.581076604E+03  0.000000000E+00  0.00000E+00  9.000E+00
      23     2     1     2     0     0  4.305740138E+01  8.074427597E+01 -4.248410300E+02  4.440481168E+02  9.118800000E+01  0.00000E+00  9.000E+00
     -13     1     3     3     0     0  1.671882689E+01  8.036736373E+01 -1.804775840E+02  1.982690138E+02  1.057000000E-01  0.00000E+00  9.000E+00
      13     1     3     3     0     0  2.633857449E+01  3.769122383E-01 -2.443634459E+02  2.457791030E+02  1.057000000E-01  0.00000E+00  9.000E+00
       1     1     1     2   511     0 -4.234334418E-01 -3.544825262E-01  2.454883870E-02  6.437828722E-01  3.300000000E-01  0.00000E+00  9.000E+00
       1     1     1     2   502     0 -1.573328394E+01 -4.309806207E+01 -2.878768444E+02  2.915101467E+02  3.300000000E-01  0.00000E+00  9.000E+00
      21     1     1     2   501   511 -2.690068400E+01 -3.729173137E+01 -8.560118711E+02  8.572459644E+02  3.411968960E-05  0.00000E+00  9.000E+00
</event>
<event>
      8  10001  1.15972E-02  2.15390E+02 -1.00000E+00  1.12376E-01
      -2    -1     0     0     0   501  0.000000000E+00  0.000000000E+00  2.813277927E+02  2.813277927E+02  0.000000000E+00  0.00000E+00  9.000E+00
       1    -1     0     0   502     0  0.000000000E+00  0.000000000E+00 -5.913783918E+02  5.913783918E+02  0.000000000E+00  0.00000E+00  9.000E+00
      23     2     1     2     0     0 -4.169038006E+01 -9.299236741E+00 -4.336247556E+02  4.451631652E+02  9.118800000E+01  0.00000E+00  9.000E+00
     -13     1     3     3     0     0 -4.151978933E+01 -4.197428989E+01 -3.571960978E+02  3.620425353E+02  1.057000000E-01  0.00000E+00  9.000E+00
      13     1     3     3     0     0 -1.705907298E-01  3.267505315E+01 -7.642865782E+01  8.312062986E+01  1.057000000E-01  0.00000E+00  9.000E+00
      -2     1     1     2     0   511 -7.608178300E+00  6.580963855E+00  9.329645537E+01  9.383779061E+01  3.300000000E-01  0.00000E+00  9.000E+00
       1     1     1     2   502     0  4.337703596E+00  1.469652148E+01  1.780870421E+02  1.787453689E+02  3.300000000E-01  0.00000E+00  9.000E+00
      21     1     1     2   511   501  4.496085477E+01 -1.197824860E+01 -1.478093410E+02  1.549598599E+02  1.907348633E-06  0.00000E+00  9.000E+00
</event>
<event>
      8  10001  1.07294E-02  3.84748E+02 -1.00000E+00  1.03804E-01
       1    -1     0     0   501     0  0.000000000E+00  0.000000000E+00  2.486576003E+02  2.486576003E+02  0.000000000E+00  0.00000E+00  9.000E+00
       2    -1     0     0   502     0  0.000000000E+00  0.000000000E+00 -4.283094435E+02  4.283094435E+02  0.000000000E+00  0.00000E+00  9.000E+00
      23     2     1     2     0     0 -1.152111301E+02 -1.380178018E+02  7.226985503E+01  2.141511182E+02  9.118800000E+01  0.00000E+00  9.000E+00
     -13     1     3     3     0     0 -9.050843296E+01 -1.464429393E+02  4.851756242E+01  1.788610520E+02  1.057000000E-01  0.00000E+00  9.000E+00
      13     1     3     3     0     0 -2.470269718E+01  8.425137495E+00  2.375229260E+01  3.529006611E+01  1.057000000E-01  0.00000E+00  9.000E+00
       2     1     1     2   511     0 -4.037143437E+01 -3.000503049E+01  3.559357811E+01  6.162115116E+01  3.300000000E-01  0.00000E+00  9.000E+00
       1     1     1     2   502     0  1.081986332E+02  3.747734710E+00 -1.240893796E+02  1.646793028E+02  3.300000000E-01  0.00000E+00  9.000E+00
      21     1     1     2   501   511  4.738393132E+01  1.642750976E+02 -1.634258968E+02  2.365154718E+02  4.264961200E-06  0.00000E+00  9.000E+00
</event>
<event>
      8  10001  2.52311E-01  3.94002E+01 -1.00000E+00  1.48573E-01
       2    -1     0     0   501     0  0.000000000E+00  0.000000000E+00  1.157091302E+03  1.157091302E+03  0.000000000E+00  0.00000E+00  9.000E+00
      -2    -1     0     0     0   502  0.000000000E+00  0.000000000E+00 -7.594028413E+00  7.594028413E+00  0.000000000E+00  0.00000E+00  9.000E+00
      23     2     1     2     0     0  1.344259360E+01 -1.128750197E+01  3.189953279E+02  3.322369359E+02  9.118800000E+01  0.00000E+00  9.000E+00
     -13     1     3     3     0     0 -3.434924291E+01 -1.700753223E+01  8.355731605E+01  9.192911878E+01  1.057000000E-01  0.00000E+00  9.000E+00
      13     1     3     3     0     0  4.779183652E+01  5.720030259E+00  2.354380118E+02  2.403078171E+02  1.057000000E-01  0.00000E+00  9.000E+00
       1     1     1     2   501     0 -1.083105777E+01  4.636982014E+00  4.054310936E+01  4.222162989E+01  3.300000000E-01  0.00000E+00  9.000E+00
      -1     1     1     2     0   511  6.262274778E+00  4.235398218E+00  1.411113179E+02  1.413140744E+02  3.300000000E-01  0.00000E+00  9.000E+00
      21     1     1     2   511   502 -8.873810609E+00  2.415121740E+00  6.488475184E+02  6.489126902E+02  1.868812365E-05  0.00000E+00  9.000E+00
</event>
<event>
      8  10001  1.33166E-02  5.76901E+01 -1.00000E+00  1.38504E-01
      -4    -1     0     0     0   501  0.000000000E+00  0.000000000E+00  8.292028779E+01  8.292028779E+01  0.000000000E+00  0.00000E+00  9.000E+00
       2    -1     0     0   502     0  0.000000000E+00  0.000000000E+00 -3.334445867E+03  3.334445867E+03  0.000000000E+00  0.00000E+00  9.000E+00
      23     2     1     2     0     0 -8.740761941E+01 -1.679527140E+02 -3.193193404E+03  3.200101182E+03  9.118800000E+01  0.00000E+00  9.000E+00
     -13     1     3     3     0     0 -2.604294384E+01 -3.673975271E+00 -1.925831510E+02  1.943708163E+02  1.057000000E-01  0.00000E+00  9.000E+00
      13     1     3     3     0     0 -6.136467557E+01 -1.642787388E+02 -3.000610253E+03  3.005730365E+03  1.057000000E-01  0.00000E+00  9.000E+00
      -4     1     1     2     0   512 -9.830597594E+00  3.025552303E+00 -1.596387105E+01  1.904966653E+01  1.500000000E+00  0.00000E+00  9.000E+00
       2     1     1     2   502     0  8.252625489E+01  1.426506029E+02 -2.583819514E+01  1.668157621E+02  3.300000000E-01  0.00000E+00  9.000E+00
      21     1     1     2   512   501  1.471196211E+01  2.227655880E+01 -1.653010937E+01  3.139954485E+01  1.702649219E-06  0.00000E+00  9.000E+00
</event>
<event>
      8  10001  1.11637E-02  9.80377E+01 -1.00000E+00  1.26620E-01
       2    -1     0     0   501     0  0.000000000E+00  0.000000000E+00  4.842174475E+02  4.842174475E+02  0.000000000E+00  0.00000E+00  9.000E+00
       1    -1     0     0   502     0  0.000000000E+00  0.000000000E+00 -5.245495300E+02  5.245495300E+02  0.000000000E+00  0.00000E+00  9.000E+00
      23     2     1     2     0     0  6.138478164E+00 -5.408539710E+01 -2.596638759E+02  2.805414246E+02  9.118800000E+01  0.00000E+00  9.000E+00
     -13     1     3     3     0     0 -2.540029026E+01 -1.392877024E+00 -1.791308196E+01  3.111277116E+01  1.057000000E-01  0.00000E+00  9.000E+00
      13     1     3     3     0     0  3.153876842E+01 -5.269252008E+01 -2.417507940E+02  2.494286534E+02  1.057000000E-01  0.00000E+00  9.000E+00
       1     1     1     2   511     0  5.805885175E+01  4.908153612E+01 -8.491599117E+01  1.139765849E+02  3.300000000E-01  0.00000E+00  9.000E+00
       2     1     1     2   502     0 -7.166835964E+01 -3.081366962E+00  4.562468067E+02  4.618518227E+02  3.300000000E-01  0.00000E+00  9.000E+00
      21     1     1     2   501   511  7.471029731E+00  8.085227946E+00 -1.519990221E+02  1.523971453E+02  6.607249480E-06  0.00000E+00  9.000E+00
</event>
<event>
      8  10001  1.83967E-01  6.23056E+00 -1.00000E+00  2.31162E-01
      21    -1     0     0   511   501  0.000000000E+00  0.000000000E+00  2.757548965E+02  2.757548965E+02  0.000000000E+00  0.00000E+00  9.000E+00
       1    -1     0     0   502     0  0.000000000E+00  0.000000000E+00 -6.643018227E+01  6.643018227E+01  0.000000000E+00  0.00000E+00  9.000E+00
      23     2     1     2     0     0 -2.093521049E+01  2.630003046E+01 -2.818535849E+01  1.011911084E+02  9.118800000E+01  0.00000E+00  9.000E+00
     -13     1     3     3     0     0 -5.011702436E+01  3.140789079E+01 -3.762410487E+01  7.009818952E+01  1.057000000E-01  0.00000E+00  9.000E+00
      13     1     3     3     0     0  2.918181387E+01 -5.107860337E+00  9.438746373E+00  3.109291887E+01  1.057000000E-01  0.00000E+00  9.000E+00
      -2     1     1     2     0   501  1.539594976E+00 -5.385245215E+00  5.650845668E+01  5.678631697E+01  3.300000000E-01  0.00000E+00  9.000E+00
       2     1     1     2   502     0  1.540977232E+01 -1.612633259E+01  1.707918637E+02  1.722425305E+02  3.300000000E-01  0.00000E+00  9.000E+00
       1     1     1     2   511     0  3.985843191E+00 -4.788452652E+00  1.020975230E+01  1.196512293E+01  3.300000000E-01  0.00000E+00  9.000E+00
</event>
<event>
      8  10001  1.13808E-02  1.30734E+02 -1.00000E+00  1.21002E-01
       2    -1     0     0   501     0  0.000000000E+00  0.000000000E+00  4.312811998E+02  4.312811998E+02  0.000000000E+00  0.00000E+00  9.000E+00
       2    -1     0     0   502     0  0.000000000E+00  0.000000000E+00 -8.035433213E+01  8.035433213E+01  0.000000000E+00  0.00000E+00  9.000E+00
      23     2     1     2     0     0 -1.526907607E+02  2.098162256E+01  9.198161488E+01  2.013220448E+02  9.118800000E+01  0.00000E+00  9.000E+00
     -13     1     3     3     0     0 -2.025523145E+00 -3.064040841E+00 -1.469997768E+01  1.515228057E+01  1.057000000E-01  0.00000E+00  9.000E+00
      13     1     3     3     0     0 -1.506652375E+02  2.404566340E+01  1.066815926E+02  1.861697642E+02  1.057000000E-01  0.00000E+00  9.000E+00
       2     1     1     2   501     0  1.039711403E+02 -1.042854407E+01  1.326612383E+02  1.688723352E+02  3.300000000E-01  0.00000E+00  9.000E+00
       2     1     1     2   511     0 -1.307860563E+00 -4.550531787E-01 -2.520083907E+00  2.894355808E+00  3.300000000E-01  0.00000E+00  9.000E+00
      21     1     1     2   502   511  5.002748090E+01 -1.009802532E+01  1.288040983E+02  1.385467961E+02  3.303624740E-06  0.00000E+00  9.000E+00
</event>
<event>
      8  10001  1.22307E-02  2.76555E+01 -1.00000E+00  1.59370E-01
      -2    -1     0     0     0   501  0.000000000E+00  0.000000000E+00  2.739270363E+02  2.739270363E+02  0.000000000E+00  0.00000E+00  9.000E+00
       2    -1     0     0   502     0  0.000000000E+00  0.000000000E+00 -1.522609040E+03  1.522609040E+03  0.000000000E+00  0.00000E+00  9.000E+00
      23     2     1     2     0     0 -2.266929985E+02  2.846103339E+02 -1.320507736E+03  1.372752232E+03  9.118800000E+01  0.00000E+00  9.000E+00
     -13     1     3     3     0     0 -1.676696705E+02  2.598984754E+02 -1.141183741E+03  1.182353871E+03  1.057000000E-01  0.00000E+00  9.000E+00
      13     1     3     3     0     0 -5.902332797E+01  2.471185848E+01 -1.793239958E+02  1.903983609E+02  1.057000000E-01  0.00000E+00  9.000E+00
      -1     1     1     2     0   501  2.175307516E+02 -2.701916860E+02  1.160110314E+02  3.657620038E+02  3.300000000E-01  0.00000E+00  9.000E+00
       1     1     1     2   512     0  6.386957667E+00 -9.243058277E+00 -4.909620138E+01  5.036639003E+01  3.300000000E-01  0.00000E+00  9.000E+00
      21     1     1     2   502   512  2.775289181E+00 -5.175589568E+00  4.910902513E+00  7.655450405E+00  4.578319638E-07  0.00000E+00  9.000E+00
</event>
<event>
      8  10001  1.16914E-02  1.43163E+03 -1.00000E+00  8.85678E-02
       2    -1     0     0   501     0  0.000000000E+00  0.000000000E+00  8.058502525E+02  8.058502525E+02  0.000000000E+00  0.00000E+00  9.000E+00
       1    -1     0     0   502     0  0.000000000E+00  0.000000000E+00 -7.334989972E+02  7.334989972E+02  0.000000000E+00  0.00000E+00  9.000E+00
      23     2     1     2     0     0  1.031814310E+02 -1.113626202E+02  6.894298659E+02  7.118123574E+02  9.118800000E+01  0.00000E+00  9.000E+00
     -13     1     3     3     0     0  1.004309430E+02 -5.983622382E+01  3.638682698E+02  3.821869660E+02  1.057000000E-01  0.00000E+00  9.000E+00
      13     1     3     3     0     0  2.750488032E+00 -5.152639635E+01  3.255615960E+02  3.296253914E+02  1.057000000E-01  0.00000E+00  9.000E+00
       2     1     1     2   511     0  3.560094240E+01 -1.668299988E+01  7.671103100E+01  8.620000442E+01  3.300000000E-01  0.00000E+00  9.000E+00
       1     1     1     2   502     0  7.680727956E+00  4.449597167E+01 -2.499067852E+01  5.160937889E+01  3.300000000E-01  0.00000E+00  9.000E+00
      21     1     1     2   501   511 -1.464631014E+02  8.354964838E+01 -6.687989630E+02  6.897275090E+02  1.525878906E-05  0.00000E+00  9.000E+00
</event>
<event>
      8  10001  1.21899E-02  8.24007E+01 -1.00000E+00  1.30277E-01
      -1    -1     0     0     0   501  0.000000000E+00  0.000000000E+00  1.644085441E+02  1.644085441E+02  0.000000000E+00  0.00000E+00  9.000E+00
       2    -1     0     0   502     0  0.000000000E+00  0.000000000E+00 -2.608252493E+02  2.608252493E+02  0.000000000E+00  0.00000E+00  9.000E+00
      23     2     1     2     0     0  2.515754561E+01  1.565870460E+01 -2.155998383E+02  2.359589768E+02  9.118800000E+01  0.00000E+00  9.000E+00
     -13     1     3     3     0     0  6.440790304E+00 -3.482372964E+01 -1.308114601E+02  1.355205711E+02  1.057000000E-01  0.00000E+00  9.000E+00
      13     1     3     3     0     0  1.871675531E+01  5.048243424E+01 -8.478837817E+01  1.004384057E+02  1.057000000E-01  0.00000E+00  9.000E+00
      -1     1     1     2     0   501 -1.639315409E+01  3.679149520E+01  6.613000247E+01  7.743149066E+01  3.300000000E-01  0.00000E+00  9.000E+00
       2     1     1     2   511     0  1.250911565E+01 -5.897812306E+01  7.000236752E+00  6.069603931E+01  3.300000000E-01  0.00000E+00  9.000E+00
      21     1     1     2   502   511 -2.127350717E+01  6.527923256E+00  4.605289385E+01  5.114728655E+01  9.536743164E-07  0.00000E+00  9.000E+00
</event>
<event>
      8  10001  2.42384E-02  1.45831E+01 -1.00000E+00  1.83664E-01
      -4    -1     0     0     0   501  0.000000000E+00  0.000000000E+00  9.598055348E+01  9.598055348E+01  0.000000000E+00  0.00000E+00  9.000E+00
       2    -1     0     0   502     0  0.000000000E+00  0.000000000E+00 -3.021126621E+02  3.021126621E+02  0.000000000E+00  0.00000E+00  9.000E+00
      23     2     1     2     0     0 -5.737659201E+01  1.137765708E+02 -1.562603658E+01  1.574693803E+02  9.118800000E+01  0.00000E+00  9.000E+00
     -13     1     3     3     0     0 -1.816046989E+01  3.834846505E+01 -5.016847951E+01  6.570612564E+01  1.057000000E-01  0.00000E+00  9.000E+00
      13     1     3     3     0     0 -3.921612213E+01  7.542810573E+01  3.454244293E+01  9.176325466E+01  1.057000000E-01  0.00000E+00  9.000E+00
      -4     1     1     2     0   501  5.493110231E+01 -1.183689672E+02 -1.785215322E+02  2.211353112E+02  1.500000000E+00  0.00000E+00  9.000E+00
       2     1     1     2   512     0 -3.975043418E+00  2.410937761E+00 -1.181980308E+01  1.270551990E+01  3.300000000E-01  0.00000E+00  9.000E+00
      21     1     1     2   502   512  6.420533118E+00  2.181458690E+00 -1.647367802E-01  6.783004183E+00  3.211591326E-07  0.00000E+00  9.000E+00
</event>
<event>
      8  10001  1.66180E-02  6.70288E+01 -1.00000E+00  1.34915E-01
      21    -1     0     0   511   501  0.000000000E+00  0.000000000E+00  6.469925109E+02  6.469925109E+02  0.000000000E+00  0.00000E+00  9.000E+00
       3    -1     0     0   502     0  0.000000000E+00  0.000000000E+00 -2.715330113E+02  2.715330113E+02  0.000000000E+00  0.00000E+00  9.000E+00
      23     2     1     2     0     0  2.975002859E+01 -1.439320255E+01 -2.458616032E+02  2.643017362E+02  9.118800000E+01  0.00000E+00  9.000E+00
     -13     1     3     3     0     0  2.853520639E+01  2.455728253E+01 -4.058008504E+01  5.535406582E+01  1.057000000E-01  0.00000E+00  9.000E+00
      13     1     3     3     0     0  1.214822207E+00 -3.895048508E+01 -2.052815182E+02  2.089476704E+02  1.057000000E-01  0.00000E+00  9.000E+00
      -2     1     1     2     0   501 -1.939089145E+01  1.015874236E+01  1.195410395E+02  1.215293205E+02  3.300000000E-01  0.00000E+00  9.000E+00
       4     1     1     2   502     0 -4.616742316E+01 -5.242737069E+01  4.252859329E+02  4.309877433E+02  1.500000000E+00  0.00000E+00  9.000E+00
       1     1     1     2   511     0  3.580828602E+01  5.666183088E+01  7.649413039E+01  1.017067221E+02  3.300000000E-01  0.00000E+00  9.000E+00
</event>
<event>
      8  10001  1.13330E-02  1.62271E+02 -1.00000E+00  1.17108E-01
      -2    -1     0     0     0   501  0.000000000E+00  0.000000000E+00  1.100697702E+03  1.100697702E+03  0.000000000E+00  0.00000E+00  9.000E+00
      21    -1     0     0   511   502  0.000000000E+00  0.000000000E+00 -2.484456379E+02  2.484456379E+02  0.000000000E+00  0.00000E+00  9.000E+00
      23     2     1     2     0     0  2.190517546E+01 -1.528093971E+02  7.314523044E+01  1.936389027E+02  9.118800000E+01  0.00000E+00  9.000E+00
     -13     1     3     3     0     0 -3.491728187E+01 -4.998303213E+01  1.622196724E+01  6.309265780E+01  1.057000000E-01  0.00000E+00  9.000E+00
      13     1     3     3     0     0  5.682245733E+01 -1.028263650E+02  5.692326320E+01  1.305462449E+02  1.057000000E-01  0.00000E+00  9.000E+00
      -2     1     1     2     0   501 -1.293075691E+01 -4.046247468E+00  5.607306235E+02  5.608943908E+02  3.300000000E-01  0.00000E+00  9.000E+00
      -4     1     1     2     0   502  1.265839002E+01  3.176772374E+02  2.773937770E+02  4.219343782E+02  1.500000000E+00  0.00000E+00  9.000E+00
       4     1     1     2   511     0 -2.163280857E+01 -1.608215928E+02 -5.901756699E+01  1.726756680E+02  1.500000000E+00  0.00000E+00  9.000E+00
</event>
<event>
      8  10001  2.54006E-02  1.90942E+02 -1.00000E+00  1.14341E-01
      -1    -1     0     0     0   501  0.000000000E+00  0.000000000E+00  7.444817842E+01  7.444817842E+01  0.000000000E+00  0.00000E+00  9.000E+00
      -2    -1     0     0     0   502  0.000000000E+00  0.000000000E+00 -7.593018900E+02  7.593018900E+02  0.000000000E+00  0.00000E+00  9.000E+00
      23     2     1     2     0     0  4.901330370E+01  8.345309022E+01 -2.491992438E+00  1.329969307E+02  9.118800000E+01  0.00000E+00  9.000E+00
     -13     1     3     3     0     0 -1.836953857E+00  4.938577031E+01  3.559733255E+01  6.090574658E+01  1.057000000E-01  0.00000E+00  9.000E+00
      13     1     3     3     0     0  5.085025756E+01  3.406731991E+01 -3.808932498E+01  7.209118413E+01  1.057000000E-01  0.00000E+00  9.000E+00
      -2     1     1     2     0   511 -1.025469353E+01  5.023556455E+00 -1.874899803E+01  2.195515169E+01  3.300000000E-01  0.00000E+00  9.000E+00
      -1     1     1     2     0   502 -4.564905335E+01 -7.093373851E+01 -2.334501377E+02  2.482226964E+02  3.300000000E-01  0.00000E+00  9.000E+00
      21     1     1     2   511   501  6.890443178E+00 -1.754290816E+01 -4.301625834E+02  4.305752896E+02  7.629394531E-06  0.00000E+00  9.000E+00
</event>
<event>
      8  10001  1.27512E-02  6.96874E+01 -1.00000E+00  1.34016E-01
      -3    -1     0     0     0   501  0.000000000E+00  0.000000000E+00  3.956394810E+01  3.956394810E+01  0.000000000E+00  0.00000E+00  9.000E+00
       2    -1     0     0   502     0  0.000000000E+00  0.000000000E+00 -4.489120910E+02  4.489120910E+02  0.000000000E+00  0.00000E+00  9.000E+00
      23     2     1     2     0     0  2.595730693E+01  6.046480936E+01 -3.342646941E+02  3.526725280E+02  9.118800000E+01  0.00000E+00  9.000E+00
     -13     1     3     3     0     0 -2.152801988E+01 -5.202865860E-02 -1.691991683E+02  1.705632670E+02  1.057000000E-01  0.00000E+00  9.000E+00
      13     1     3     3     0     0  4.748532681E+01  6.051683802E+01 -1.650655258E+02  1.821092610E+02  1.057000000E-01  0.00000E+00  9.000E+00
      -3     1     1     2     0   501 -3.168027141E+01 -3.119973716E+01 -2.710687272E+00  4.454953446E+01  5.000000000E-01  0.00000E+00  9.000E+00
       2     1     1     2   511     0 -6.533368080E-01 -5.365301257E-01 -5.886888809E+01  5.887588300E+01  3.300000000E-01  0.00000E+00  9.000E+00
      21     1     1     2   502   511  6.376301292E+00 -2.872854208E+01 -1.350387341E+01  3.237809360E+01  9.233911863E-07  0.00000E+00  9.000E+00
</event>
<event>
      8  10001  2.19710E-02  4.54181E+01 -1.00000E+00  1.44648E-01
       2    -1     0     0   501     0  0.000000000E+00  0.000000000E+00  4.921677585E+01  4.921677585E+01  0.000000000E+00  0.00000E+00  9.000E+00
       1    -1     0     0   502     0  0.000000000E+00  0.000000000E+00 -5.193845377E+02  5.193845377E+02  0.000000000E+00  0.00000E+00  9.000E+00
      23     2     1     2     0     0  2.791882949E-01  3.846800790E+01 -1.594790567E+01  1.002469581E+02  9.118800000E+01  0.00000E+00  9.000E+00
     -13     1     3     3     0     0 -3.319606332E+01  2.882202253E+01  2.163803671E+01  4.899901436E+01  1.057000000E-01  0.00000E+00  9.000E+00
      13     1     3     3     0     0  3.347525162E+01  9.645985367E+00 -3.758594239E+01  5.124794378E+01  1.057000000E-01  0.00000E+00  9.000E+00
       2     1     1     2   512     0  7.325880105E-01 -6.063623559E+00  5.026949667E+00  7.917281024E+00  3.300000000E-01  0.00000E+00  9.000E+00
       1     1     1     2   502     0 -1.363052491E+00 -2.949488426E+01 -3.841887443E+02  3.853218217E+02  3.300000000E-01  0.00000E+00  9.000E+00
      21     1     1     2   501   512  3.512761854E-01 -2.909500081E+00 -7.505806154E+01  7.511525270E+01  0.000000000E+00  0.00000E+00  9.000E+00
</event>
<event>
      8  10001  1.07207E-02  1.28603E+02 -1.00000E+00  1.21310E-01
       3    -1     0     0   501     0  0.000000000E+00  0.000000000E+00  7.999705461E+01  7.999705461E+01  0.000000000E+00  0.00000E+00  9.000E+00
       2    -1     0     0   502     0  0.000000000E+00  0.000000000E+00 -6.976768131E+02  6.976768131E+02  0.000000000E+00  0.00000E+00  9.000E+00
      23     2     1     2     0     0 -1.780663483E+01  1.248106143E+00 -1.833142266E+02  2.055188338E+02  9.118800000E+01  0.00000E+00  9.000E+00
     -13     1     3     3     0     0 -3.855942108E+00  4.170172280E+01 -1.331590135E+02  1.395895269E+02  1.057000000E-01  0.00000E+00  9.000E+00
      13     1     3     3     0     0 -1.395069272E+01 -4.045361666E+01 -5.015521311E+01  6.592930686E+01  1.057000000E-01  0.00000E+00  9.000E+00
       4     1     1     2   501     0  5.526256330E+01 -1.069080635E+02 -3.135719389E+02  3.358763103E+02  1.500000000E+00  0.00000E+00  9.000E+00
       1     1     1     2   511     0 -3.473945324E+01  1.385885997E+02 -1.383331918E+02  1.988713414E+02  3.300000000E-01  0.00000E+00  9.000E+00
      21     1     1     2   502   511 -2.716475239E+00 -3.292864227E+01  1.753959885E+01  3.740738226E+01  0.000000000E+00  0.00000E+00  9.000E+00
</event>
<event>
      8  10001  1.46844E-02  1.39195E+02 -1.00000E+00  1.19845E-01
      -2    -1     0     0     0   501  0.000000000E+00  0.000000000E+00  4.684477417E+01  4.684477417E+01  0.000000000E+00  0.00000E+00  9.000E+00
       2    -1     0     0   502     0  0.000000000E+00  0.000000000E+00 -5.059837453E+02  5.059837453E+02  0.000000000E+00  0.00000E+00  9.000E+00
      23     2     1     2     0     0 -2.375731874E+01  5.767530402E+00 -4.790029442E+01  1.058648391E+02  9.118800000E+01  0.00000E+00  9.000E+00
     -13     1     3     3     0     0 -4.321775959E+00  4.767742333E+01 -1.989950553E+01  5.184415044E+01  1.057000000E-01  0.00000E+00  9.000E+00
      13     1     3     3     0     0 -1.943554278E+01 -4.190989292E+01 -2.800078890E+01  5.402068862E+01  1.057000000E-01  0.00000E+00  9.000E+00
      -2     1     1     2     0   512 -2.865251150E+01  1.715545283E+01 -1.986591104E+02  2.014468342E+02  3.300000000E-01  0.00000E+00  9.000E+00
       2     1     1     2   502     0 -8.297681174E+00 -4.685334114E+00 -1.674110384E+02  1.676823441E+02  3.300000000E-01  0.00000E+00  9.000E+00
      21     1     1     2   512   501  6.070751141E+01 -1.823764911E+01 -4.516852789E+01  7.783450198E+01  2.336015456E-06  0.00000E+00  9.000E+00
</event>
<event>
      8  10001  1.09081E-02  2.92751E+02 -1.00000E+00  1.07670E-01
       2    -1     0     0   501     0  0.000000000E+00  0.000000000E+00  2.398060712E+02  2.398060712E+02  0.000000000E+00  0.00000E+00  9.000E+00
      -4    -1     0     0     0   502  0.000000000E+00  0.000000000E+00 -2.790402009E+02  2.790402009E+02  0.000000000E+00  0.00000E+00  9.000E+00
      23     2     1     2     0     0  7.961967807E+01  1.043890600E+02  7.351080633E+00  1.600176825E+02  9.118800000E+01  0.00000E+00  9.000E+00
     -13     1     3     3     0     0  7.620224201E+00  3.704815882E+01 -3.609715355E+01  5.228431462E+01  1.057000000E-01  0.00000E+00  9.000E+00
      13     1     3     3     0     0  7.199945387E+01  6.734090122E+01  4.344823418E+01  1.077333679E+02  1.057000000E-01  0.00000E+00  9.000E+00
       2     1     1     2   501     0  9.992606472E+00 -9.555295639E+01 -1.440996796E+02  1.731907798E+02  3.300000000E-01  0.00000E+00  9.000E+00
      -4     1     1     2     0   511 -1.050119107E+01  1.128836696E+01 -3.027112509E+01  3.400431232E+01  1.500000000E+00  0.00000E+00  9.000E+00
      21     1     1     2   511   502 -7.911109347E+01 -2.012447061E+01  1.277855943E+02  1.516334974E+02  4.046097457E-06  0.00000E+00  9.000E+00
</event>
<event>
      8  10001  1.06942E-02  2.59102E+02 -1.00000E+00  1.09494E-01
       1    -1     0     0   501     0  0.000000000E+00  0.000000000E+00  1.058941734E+03  1.058941734E+03  0.000000000E+00  0.00000E+00  9.000E+00
       2    -1     0     0   502     0  0.000000000E+00  0.000000000E+00 -5.405224375E+02  5.405224375E+02  0.000000000E+00  0.00000E+00  9.000E+00
      23     2     1     2     0     0  1.797465541E+02 -9.741756857E+01  8.643023601E+02  8.928229541E+02  9.118800000E+01  0.00000E+00  9.000E+00
     -13     1     3     3     0     0  1.819686622E+02 -8.742162653E+01  8.564416677E+02  8.799133344E+02  1.057000000E-01  0.00000E+00  9.000E+00
      13     1     3     3     0     0 -2.222108148E+00 -9.995942034E+00  7.860692376E+00  1.290961963E+01  1.057000000E-01  0.00000E+00  9.000E+00
       1     1     1     2   501     0 -1.873766703E+02  1.865016014E+01 -4.696248279E+02  5.059697944E+02  3.300000000E-01  0.00000E+00  9.000E+00
       2     1     1     2   512     0  3.641511104E+00 -1.195546052E+01 -2.410995881E+01  2.715865706E+01  3.300000000E-01  0.00000E+00  9.000E+00
      21     1     1     2   502   512  3.988605068E+00  9.072286894E+01  1.478517228E+02  1.735127656E+02  2.697398305E-06  0.00000E+00  9.000E+00
</event>
<event>
      8  10001  1.05100E-02  3.07173E+03 -1.00000E+00  8.16321E-02
       2    -1     0     0   501     0  0.000000000E+00  0.000000000E+00  3.082462677E+03  3.082462677E+03  0.000000000E+00  0.00000E+00  9.000E+00
       1    -1     0     0   502     0  0.000000000E+00  0.000000000E+00 -1.107960849E+03  1.107960849E+03  0.000000000E+00  0.00000E+00  9.000E+00
      23     2     1     2     0     0 -2.359813702E+01 -1.042569822E+02 -3.031738527E+02  3.341497071E+02  9.118800000E+01  0.00000E+00  9.000E+00
     -13     1     3     3     0     0  5.857223404E+00 -1.100002717E+02 -2.473664178E+02  2.707850118E+02  1.057000000E-01  0.00000E+00  9.000E+00
      13     1     3     3     0     0 -2.945536043E+01  5.743289430E+00 -5.580743499E+01  6.336469525E+01  1.057000000E-01  0.00000E+00  9.000E+00
       1     1     1     2   501     0 -9.484144029E+02 -8.845756081E+01  6.651004963E+02  1.161754449E+03  3.300000000E-01  0.00000E+00  9.000E+00
       2     1     1     2   511     0 -3.922379492E+02  2.500759958E+02 -1.278091292E+02  4.824146503E+02  3.300000000E-01  0.00000E+00  9.000E+00
      21     1     1     2   502   511  1.364250489E+03 -5.736145274E+01  1.740384313E+03  2.212104720E+03  3.051757813E-05  0.00000E+00  9.000E+00
</event>
<event>
      8  10001  1.23139E-02  3.73882E+02 -1.00000E+00  1.04196E-01
      -1    -1     0     0     0   501  0.000000000E+00  0.000000000E+00  5.461281482E+02  5.461281482E+02  0.000000000E+00  0.00000E+00  9.000E+00
      -2    -1     0     0     0   502  0.000000000E+00  0.000000000E+00 -1.435973383E+02  1.435973383E+02  0.000000000E+00  0.00000E+00  9.000E+00
      23     2     1     2     0     0  6.225666769E+01 -5.227821298E+01  1.107031940E+02  1.648616169E+02  9.118800000E+01  0.00000E+00  9.000E+00
     -13     1     3     3     0     0  6.234698309E+01 -4.889255952E+01  3.099018686E+01  8.507662153E+01  1.057000000E-01  0.00000E+00  9.000E+00
      13     1     3     3     0     0 -9.031540069E-02 -3.385653456E+00  7.971300717E+01  7.978499540E+01  1.057000000E-01  0.00000E+00  9.000E+00
      -2     1     1     2     0   501 -6.651561492E+01  6.315287643E+01 -1.763782620E+01  9.340136318E+01  3.300000000E-01  0.00000E+00  9.000E+00
      -1     1     1     2     0   512  2.957556406E+01 -2.764780884E+01 -5.357568531E+01  6.715339366E+01  3.300000000E-01  0.00000E+00  9.000E+00
      21     1     1     2   512   502 -2.531661682E+01  1.677314539E+01  3.630411274E+02  3.643091128E+02  5.394796609E-06  0.00000E+00  9.000E+00
</event>
<event>
      8  10001  3.38565E-02  1.17766E+02 -1.00000E+00  1.22981E-01
       3    -1     0     0   501     0  0.000000000E+00  0.000000000E+00  8.276450226E+02  8.276450226E+02  0.000000000E+00  0.00000E+00  9.000E+00
      -3    -1     0     0     0   502  0.000000000E+00  0.000000000E+00 -2.963353845E+01  2.963353845E+01  0.000000000E+00  0.00000E+00  9.000E+00
      23     2     1     2     0     0  4.270746696E+01  8.983802041E+00  4.101538820E+02  4.224288043E+02  9.118800000E+01  0.00000E+00  9.000E+00
     -13     1     3     3     0     0  2.459278955E+00 -3.600937624E+01  9.673783231E+01  1.032518407E+02  1.057000000E-01  0.00000E+00  9.000E+00
      13     1     3     3     0     0  4.024818801E+01  4.499317828E+01  3.134160497E+02  3.191769636E+02  1.057000000E-01  0.00000E+00  9.000E+00
       4     1     1     2   501     0 -4.450021638E+01 -4.846435307E+00  1.403432403E+01  4.693580131E+01  1.500000000E+00  0.00000E+00  9.000E+00
      -4     1     1     2     0   511 -4.653749890E+01 -9.619630424E+00  1.130149157E+02  1.226087161E+02  1.500000000E+00  0.00000E+00  9.000E+00
      21     1     1     2   511   502  4.833024833E+01  5.482263691E+00  2.608083625E+02  2.653052394E+02  6.607249480E-06  0.00000E+00  9.000E+00
</event>
<event>
      8  10001  1.39197E-02  6.28139E+01 -1.00000E+00  1.36445E-01
       1    -1     0     0   501     0  0.000000000E+00  0.000000000E+00  1.000751365E+02  1.000751365E+02  0.000000000E+00  0.00000E+00  9.000E+00
       2    -1     0     0   502     0  0.000000000E+00  0.000000000E+00 -2.054248827E+02  2.054248827E+02  0.000000000E+00  0.00000E+00  9.000E+00
      23     2     1     2     0     0 -2.116125775E+00 -3.806794836E+01 -5.903179275E+01  1.151245003E+02  9.118800000E+01  0.00000E+00  9.000E+00
     -13     1     3     3     0     0  3.557839368E+01 -2.620826971E+01 -6.127231343E+01  7.554470904E+01  1.057000000E-01  0.00000E+00  9.000E+00
      13     1     3     3     0     0 -3.769451946E+01 -1.185967865E+01  2.240520677E+00  3.957979131E+01  1.057000000E-01  0.00000E+00  9.000E+00
       2     1     1     2   501     0 -2.856314634E+01  2.682693354E+01 -1.034185790E+02  1.105940734E+02  3.300000000E-01  0.00000E+00  9.000E+00
       1     1     1     2   512     0  2.108010225E+01  1.992104442E+01  9.605612221E+00  3.055479353E+01  3.300000000E-01  0.00000E+00  9.000E+00
      21     1     1     2   502   512  9.599169870E+00 -8.680029595E+00  4.749501328E+01  4.922665196E+01  9.536743164E-07  0.00000E+00  9.000E+00
</event>
<event>
      8  10001  2.07195E-02  2.61045E+01 -1.00000E+00  1.61286E-01
      -1    -1     0     0     0   501  0.000000000E+00  0.000000000E+00  1.751191575E+01  1.751191575E+01  0.000000000E+00  0.00000E+00  9.000E+00
       1    -1     0     0   502     0  0.000000000E+00  0.000000000E+00 -4.360347844E+02  4.360347844E+02  0.000000000E+00  0.00000E+00  9.000E+00
      23     2     1     2     0     0 -2.710418899E+01 -7.946834761E-01 -3.396448916E+02  3.527168443E+02  9.118800000E+01  0.00000E+00  9.000E+00
     -13     1     3     3     0     0 -2.920488072E+01  3.510031923E+01 -2.748209796E+02  2.785884769E+02  1.057000000E-01  0.00000E+00  9.000E+00
      13     1     3     3     0     0  2.100691725E+00 -3.589500270E+01 -6.482391196E+01  7.412836744E+01  1.057000000E-01  0.00000E+00  9.000E+00
      -1     1     1     2     0   511  1.053382719E+00 -5.884860254E+00 -4.817724778E+00  7.685087338E+00  3.300000000E-01  0.00000E+00  9.000E+00
       1     1     1     2   502     0  1.136847645E+01  1.671004521E+01 -3.670535718E+00  2.054384579E+01  3.300000000E-01  0.00000E+00  9.000E+00
      21     1     1     2   511   501  1.468232983E+01 -1.003050148E+01 -7.038971661E+01  7.260092268E+01  1.348699152E-06  0.00000E+00  9.000E+00
</event>
<event>
      8  10001  1.06586E-02  2.02395E+02 -1.00000E+00  1.13382E-01
       2    -1     0     0   501     0  0.000000000E+00  0.000000000E+00  1.035885564E+03  1.035885564E+03  0.000000000E+00  0.00000E+00  9.000E+00
       1    -1     0     0   502     0  0.000000000E+00  0.000000000E+00 -1.248775896E+02  1.248775896E+02  0.000000000E+00  0.00000E+00  9.000E+00
      23     2     1     2     0     0 -2.263836392E+02  1.499402376E+02  1.999341717E+02  3.493144018E+02  9.118800000E+01  0.00000E+00  9.000E+00
     -13     1     3     3     0     0 -3.291023274E+00  1.161558763E+01  4.034545196E+01  4.211317343E+01  1.057000000E-01  0.00000E+00  9.000E+00
      13     1     3     3     0     0 -2.230926159E+02  1.383246500E+02  1.595887197E+02  3.072012284E+02  1.057000000E-01  0.00000E+00  9.000E+00
       1     1     1     2   511     0  4.769704147E+01  1.379785709E+01  2.411318702E+02  2.461911378E+02  3.300000000E-01  0.00000E+00  9.000E+00
       2     1     1     2   502     0  1.648862443E+02 -5.588563059E+01  3.992693463E+02  4.355763964E+02  3.300000000E-01  0.00000E+00  9.000E+00
      21     1     1     2   501   511  1.380035340E+01 -1.078524641E+02  7.067258638E+01  1.296812178E+02  6.942853822E-06  0.00000E+00  9.000E+00
</event>
<event>
      8  10001  1.09914E-02  5.54751E+02 -1.00000E+00  9.90496E-02
       2    -1     0     0   501     0  0.000000000E+00  0.000000000E+00  3.265074508E+02  3.265074508E+02  0.000000000E+00  0.00000E+00  9.000E+00
       1    -1     0     0   502     0  0.000000000E+00  0.000000000E+00 -4.554043919E+02  4.554043919E+02  0.000000000E+00  0.00000E+00  9.000E+00
      23     2     1     2     0     0  1.145350867E+02 -1.090756768E+02 -1.038778173E+02  2.100515213E+02  9.118800000E+01  0.00000E+00  9.000E+00
     -13     1     3     3     0     0  6.054167578E+01 -1.556579269E+01 -7.624217943E+01  9.859244142E+01  1.057000000E-01  0.00000E+00  9.000E+00
      13     1     3     3     0     0  5.399341096E+01 -9.350988407E+01 -2.763563784E+01  1.114590799E+02  1.057000000E-01  0.00000E+00  9.000E+00
       2     1     1     2   501     0  4.050682367E+00  7.763757327E+01 -2.528681886E+02  2.645494859E+02  3.300000000E-01  0.00000E+00  9.000E+00
       1     1     1     2   511     0 -1.166890168E+01  1.694088966E+01 -2.501570871E+01  3.238906592E+01  3.300000000E-01  0.00000E+00  9.000E+00
      21     1     1     2   502   511 -1.069168674E+02  1.449721382E+01  2.528647734E+02  2.749217695E+02  7.629394531E-06  0.00000E+00  9.000E+00
</event>
<event>
      8  10001  1.06685E-02  2.66149E+02 -1.00000E+00  1.09087E-01
       1    -1     0     0   501     0  0.000000000E+00  0.000000000E+00  1.261830896E+03  1.261830896E+03  0.000000000E+00  0.00000E+00  9.000E+00
       1    -1     0     0   502     0  0.000000000E+00  0.000000000E+00 -1.642699070E+02  1.642699070E+02  0.000000000E+00  0.00000E+00  9.000E+00
      23     2     1     2     0     0 -2.951889142E+02 -1.325970293E+02  1.012168641E+02  3.511104843E+02  9.118800000E+01  0.00000E+00  9.000E+00
     -13     1     3     3     0     0 -1.443811694E+02 -3.742161298E+01  8.591230162E+01  1.721256341E+02  1.057000000E-01  0.00000E+00  9.000E+00
      13     1     3     3     0     0 -1.508077449E+02 -9.517541632E+01  1.530456248E+01  1.789848502E+02  1.057000000E-01  0.00000E+00  9.000E+00
       1     1     1     2   501     0  1.906517489E+02  7.449513484E+01  4.216534790E+02  4.687103367E+02  3.300000000E-01  0.00000E+00  9.000E+00
       1     1     1     2   512     0 -3.394129859E+01 -1.019240907E+01  1.573772930E+02  1.613183753E+02  3.300000000E-01  0.00000E+00  9.000E+00
      21     1     1     2   502   512  1.384784639E+02  6.829430353E+01  4.173133524E+02  4.449616062E+02  1.321449896E-05  0.00000E+00  9.000E+00
</event>
<event>
      8  10001  1.06451E-02  2.77442E+02 -1.00000E+00  1.08464E-01
      -3    -1     0     0     0   501  0.000000000E+00  0.000000000E+00  3.777542570E+01  3.777542570E+01  0.000000000E+00  0.00000E+00  9.000E+00
       2    -1     0     0   502     0  0.000000000E+00  0.000000000E+00 -2.331061642E+03  2.331061642E+03  0.000000000E+00  0.00000E+00  9.000E+00
      23     2     1     2     0     0  1.339231538E+02 -3.624237183E+01 -6.662853272E+02  6.866588012E+02  9.118800000E+01  0.00000E+00  9.000E+00
     -13     1     3     3     0     0  1.373144578E+02 -7.986952626E+00 -5.480324977E+02  5.650298058E+02  1.057000000E-01  0.00000E+00  9.000E+00
      13     1     3     3     0     0 -3.391304013E+00 -2.825541920E+01 -1.182528295E+02  1.216289954E+02  1.057000000E-01  0.00000E+00  9.000E+00
      -3     1     1     2     0   501 -5.794943566E+01  1.375602547E+02 -3.231544433E+02  3.559634883E+02  5.000000000E-01  0.00000E+00  9.000E+00
       2     1     1     2   511     0  4.893802769E+01  5.000610161E+00 -6.589627802E+02  6.607964825E+02  3.300000000E-01  0.00000E+00  9.000E+00
      21     1     1     2   502   511 -1.249117458E+02 -1.063184930E+02 -6.448836660E+02  6.654182962E+02  1.321449896E-05  0.00000E+00  9.000E+00
</event>
<event>
      8  10001  4.34211E-02  1.40985E+02 -1.00000E+00  1.19612E-01
       2    -1     0     0   501     0  0.000000000E+00  0.000000000E+00  2.262709174E+02  2.262709174E+02  0.000000000E+00  0.00000E+00  9.000E+00
      -1    -1     0     0     0   502  0.000000000E+00  0.000000000E+00 -7.276689788E+01  7.276689788E+01  0.000000000E+00  0.00000E+00  9.000E+00
      23     2     1     2     0     0  9.172321561E+00 -1.917599764E+01  6.041592388E+01  1.114324260E+02  9.118800000E+01  0.00000E+00  9.000E+00
     -13     1     3     3     0     0 -4.823164353E+00 -4.400673290E+01 -3.956915059E-01  4.427214925E+01  1.057000000E-01  0.00000E+00  9.000E+00
      13     1     3     3     0     0  1.399548591E+01  2.483073525E+01  6.081161539E+01  6.716027679E+01  1.057000000E-01  0.00000E+00  9.000E+00
       2     1     1     2   512     0 -1.093994921E+00  3.595402603E+00 -1.774029451E+00  4.168911759E+00  3.300000000E-01  0.00000E+00  9.000E+00
      -1     1     1     2     0   502  4.249238302E+00 -8.702331692E+00 -4.240294133E+01  4.349603357E+01  3.300000000E-01  0.00000E+00  9.000E+00
      21     1     1     2   501   512 -1.232756494E+01  2.428292673E+01  1.372650665E+02  1.399404440E+02  2.697398305E-06  0.00000E+00  9.000E+00
</event>
<event>
      8  10001  1.07299E-02  1.54771E+02 -1.00000E+00  1.17939E-01
       2    -1     0     0   501     0  0.000000000E+00  0.000000000E+00  1.015034936E+03  1.015034936E+03  0.000000000E+00  0.00000E+00  9.000E+00
       1    -1     0     0   502     0  0.000000000E+00  0.000000000E+00 -8.740513469E+01  8.740513469E+01  0.000000000E+00  0.00000E+00  9.000E+00
      23     2     1     2     0     0 -5.007265198E+00 -4.599126360E+00 -1.791309255E+01  9.317915484E+01  9.118800000E+01  0.00000E+00  9.000E+00
     -13     1     3     3     0     0 -4.627732678E+01 -1.424760467E+01 -1.502165089E+01  5.069759738E+01  1.057000000E-01  0.00000E+00  9.000E+00
      13     1     3     3     0     0  4.127006158E+01  9.648478309E+00 -2.891441654E+00  4.248155746E+01  1.057000000E-01  0.00000E+00  9.000E+00
       1     1     1     2   511     0  1.085459916E+02 -5.170606571E+01  3.141170444E+02  3.363411601E+02  3.300000000E-01  0.00000E+00  9.000E+00
       2     1     1     2   502     0 -6.393667291E+01  9.790294616E+00  6.013664280E+02  6.048350500E+02  3.300000000E-01  0.00000E+00  9.000E+00
      21     1     1     2   501   511 -3.960205347E+01  4.651489746E+01  3.005942124E+01  6.808470555E+01  4.920904026E-06  0.00000E+00  9.000E+00
</event>
<event>
      8  10001  3.00405E-02  1.07952E+02 -1.00000E+00  1.24681E-01
       2    -1     0     0   501     0  0.000000000E+00  0.000000000E+00  2.842839912E+01  2.842839912E+01  0.000000000E+00  0.00000E+00  9.000E+00
      -1    -1     0     0     0   502  0.000000000E+00  0.000000000E+00 -4.377473871E+02  4.377473871E+02  0.000000000E+00  0.00000E+00  9.000E+00
      23     2     1     2     0     0 -3.896406905E+01  1.240810525E+01 -2.160164320E+02  2.380136761E+02  9.118800000E+01  0.00000E+00  9.000E+00
     -13     1     3     3     0     0 -1.651721779E+01  4.651213032E+01 -6.524223082E+01  8.180926968E+01  1.057000000E-01  0.00000E+00  9.000E+00
      13     1     3     3     0     0 -2.244685126E+01 -3.410402507E+01 -1.507742012E+02  1.562044064E+02  1.057000000E-01  0.00000E+00  9.000E+00
       2     1     1     2   501     0  8.279282429E+00 -1.246653984E+01  5.119247808E+00  1.582013689E+01  3.300000000E-01  0.00000E+00  9.000E+00
      -1     1     1     2     0   511 -1.116001165E+00  1.092291878E+01  1.107712371E-01  1.098529852E+01  3.300000000E-01  0.00000E+00  9.000E+00
      21     1     1     2   511   502  3.180078779E+01 -1.086448419E+01 -1.985325750E+02  2.013566747E+02  0.000000000E+00  0.00000E+00  9.000E+00
</event>
<event>
      8  10001  1.14003E-02  4.75232E+01 -1.00000E+00  1.43442E-01
       2    -1     0     0   501     0  0.000000000E+00  0.000000000E+00  1.659265763E+03  1.659265763E+03  0.000000000E+00  0.00000E+00  9.000E+00
       2    -1     0     0   502     0  0.000000000E+00  0.000000000E+00 -5.119629329E+01  5.119629329E+01  0.000000000E+00  0.00000E+00  9.000E+00
      23     2     1     2     0     0 -4.009762300E+01 -2.578340714E+02  5.378306063E+02  6.047009510E+02  9.118800000E+01  0.00000E+00  9.000E+00
     -13     1     3     3     0     0 -5.258337307E+01 -2.534298089E+02  4.796020883E+02  5.449861039E+02  1.057000000E-01  0.00000E+00  9.000E+00
      13     1     3     3     0     0  1.248575007E+01 -4.404262426E+00  5.822851798E+01  5.971484708E+01  1.057000000E-01  0.00000E+00  9.000E+00
       2     1     1     2   512     0  1.933151138E-01  2.688423280E+00  1.024465181E+02  1.024825008E+02  3.300000000E-01  0.00000E+00  9.000E+00
       2     1     1     2   502     0  1.407183001E+01  2.213668666E+02  8.000028957E+02  8.301843458E+02  3.300000000E-01  0.00000E+00  9.000E+00
      21     1     1     2   501   512  2.583247788E+01  3.377878148E+01  1.677894497E+02  1.730942587E+02  6.031565972E-06  0.00000E+00  9.000E+00
</event>
<event>
      8  10001  1.17999E-02  4.47031E+02 -1.00000E+00  1.01800E-01
       1    -1     0     0   501     0  0.000000000E+00  0.000000000E+00  1.609275199E+02  1.609275199E+02  0.000000000E+00  0.00000E+00  9.000E+00
       2    -1     0     0   502     0  0.000000000E+00  0.000000000E+00 -9.169934300E+02  9.169934300E+02  0.000000000E+00  0.00000E+00  9.000E+00
      23     2     1     2     0     0  3.559996137E+01  7.705478910E+00  2.870996247E+01  1.023046673E+02  9.118800000E+01  0.00000E+00  9.000E+00
     -13     1     3     3     0     0  4.091468589E+01 -3.512321183E+01  2.354630177E+01  5.883953628E+01  1.057000000E-01  0.00000E+00  9.000E+00
      13     1     3     3     0     0 -5.314724514E+00  4.282869074E+01  5.163660701E+00  4.346513098E+01  1.057000000E-01  0.00000E+00  9.000E+00
       2     1     1     2   501     0  2.620908803E+01 -1.487909987E+00 -8.468389814E+01  8.866003426E+01  3.300000000E-01  0.00000E+00  9.000E+00
       1     1     1     2   511     0 -1.463296205E+01 -3.374209402E+01 -7.850744021E+02  7.859354797E+02  3.300000000E-01  0.00000E+00  9.000E+00
      21     1     1     2   502   511 -4.717608736E+01  2.752452510E+01  8.498242767E+01  1.010207687E+02  8.844011779E-06  0.00000E+00  9.000E+00
</event>
<event>
      8  10001  1.38815E-02  4.09791E+01 -1.00000E+00  1.47466E-01
       3    -1     0     0   501     0  0.000000000E+00  0.000000000E+00  2.935793475E+01  2.935793475E+01  0.000000000E+00  0.00000E+00  9.000E+00
       3    -1     0     0   502     0  0.000000000E+00  0.000000000E+00 -6.816407558E+02  6.816407558E+02  0.000000000E+00  0.00000E+00  9.000E+00
      23     2     1     2     0     0 -7.863046178E+00 -1.921754807E+01 -4.752481616E+02  4.843626824E+02  9.118800000E+01  0.00000E+00  9.000E+00
     -13     1     3     3     0     0 -3.885015571E+01 -8.041329147E+00 -4.031289753E+02  4.050765106E+02  1.057000000E-01  0.00000E+00  9.000E+00
      13     1     3     3     0     0  3.098710953E+01 -1.117621892E+01 -7.211918630E+01  7.928617176E+01  1.057000000E-01  0.00000E+00  9.000E+00
       3     1     1     2   501     0 -2.580226934E+01  1.719616124E+01  1.082177048E+01  3.284548341E+01  5.000000000E-01  0.00000E+00  9.000E+00
       3     1     1     2   512     0  2.115176108E+01 -1.893732680E+00 -3.944586987E+01  4.480189584E+01  5.000000000E-01  0.00000E+00  9.000E+00
      21     1     1     2   502   512  1.251355443E+01  3.915119513E+00 -1.484105601E+02  1.489886290E+02  3.814697266E-06  0.00000E+00  9.000E+00
</event>
<event>
      8  10001  3.05256E-02  6.20591E+01 -1.00000E+00  1.36734E-01
      -2    -1     0     0     0   501  0.000000000E+00  0.000000000E+00  4.441988471E+02  4.441988471E+02  0.000000000E+00  0.00000E+00  9.000E+00
      -4    -1     0     0     0   502  0.000000000E+00  0.000000000E+00 -2.614145606E+01  2.614145606E+01  0.000000000E+00  0.00000E+00  9.000E+00
      23     2     1     2     0     0  5.948357739E+00  3.216673140E+00  6.498430236E+01  1.121781656E+02  9.118800000E+01  0.00000E+00  9.000E+00
     -13     1     3     3     0     0 -1.651840167E+01  7.389708724E+00 -1.834733702E+01  2.577016369E+01  1.057000000E-01  0.00000E+00  9.000E+00
      13     1     3     3     0     0  2.246675941E+01 -4.173035584E+00  8.333163937E+01  8.640800193E+01  1.057000000E-01  0.00000E+00  9.000E+00
      -2     1     1     2     0   501 -1.849893147E+01 -8.072083519E+00  1.341089555E+02  1.356196514E+02  3.300000000E-01  0.00000E+00  9.000E+00
      -4     1     1     2     0   511  1.604533035E+01  5.079422589E-02  3.554980370E+01  3.903195805E+01  1.500000000E+00  0.00000E+00  9.000E+00
      21     1     1     2   511   502 -3.494756623E+00  4.804616153E+00  1.834143295E+02  1.835105281E+02  2.697398305E-06  0.00000E+00  9.000E+00
</event>
<event>
      8  10001  1.30233E-02  2.54355E+02 -1.00000E+00  1.09775E-01
      -1    -1     0     0     0   501  0.000000000E+00  0.000000000E+00  2.197809821E+01  2.197809821E+01  0.000000000E+00  0.00000E+00  9.000E+00
       1    -1     0     0   502     0  0.000000000E+00  0.000000000E+00 -1.870129905E+03  1.870129905E+03  0.000000000E+00  0.00000E+00  9.000E+00
      23     2     1     2     0     0 -7.724741498E-01 -1.015114582E+00 -1.470026636E+03  1.472852738E+03  9.118800000E+01  0.00000E+00  9.000E+00
     -13     1     3     3     0     0  2.234451458E+01 -1.698540567E+01 -1.546710083E+02  1.571970525E+02  1.057000000E-01  0.00000E+00  9.000E+00
      13     1     3     3     0     0 -2.311698872E+01  1.597029109E+01 -1.315355627E+03  1.315655686E+03  1.057000000E-01  0.00000E+00  9.000E+00
      -2     1     1     2     0   501  4.038559635E+01  3.961752705E+00 -2.354597530E+02  2.389311534E+02  3.300000000E-01  0.00000E+00  9.000E+00
       2     1     1     2   512     0 -1.917630258E+01 -1.779962021E+01 -1.513605295E+02  1.536055853E+02  3.300000000E-01  0.00000E+00  9.000E+00
      21     1     1     2   502   512 -2.043681962E+01  1.485298209E+01  8.695111624E+00  2.671852614E+01  1.192092896E-07  0.00000E+00  9.000E+00
</event>
<event>
      8  10001  1.06560E-02  3.20729E+02 -1.00000E+00  1.06346E-01
       2    -1     0     0   501     0  0.000000000E+00  0.000000000E+00  9.526398337E+02  9.526398337E+02  0.000000000E+00  0.00000E+00  9.000E+00
       3    -1     0     0   502     0  0.000000000E+00  0.000000000E+00 -8.017907774E+01  8.017907774E+01  0.000000000E+00  0.00000E+00  9.000E+00
      23     2     1     2     0     0 -2.428323217E+01  7.482864163E+00  3.491616572E+01  1.008962764E+02  9.118800000E+01  0.00000E+00  9.000E+00
     -13     1     3     3     0     0 -3.845281530E+01  4.130036911E+01  1.210624154E+01  5.771405159E+01  1.057000000E-01  0.00000E+00  9.000E+00
      13     1     3     3     0     0  1.416958313E+01 -3.381750495E+01  2.280992417E+01  4.318222482E+01  1.057000000E-01  0.00000E+00  9.000E+00
       1     1     1     2   511     0  1.393829514E+01  3.421673546E+01  1.891987152E+02  1.927727258E+02  3.300000000E-01  0.00000E+00  9.000E+00
       4     1     1     2   502     0 -9.386377839E+01  6.805496007E+01  5.417849579E+02  5.540533161E+02  1.500000000E+00  0.00000E+00  9.000E+00
      21     1     1     2   501   511  1.042087154E+02 -1.097545597E+02  1.065609171E+02  1.850965932E+02  1.341938713E-05  0.00000E+00  9.000E+00
</event>
<event>
      8  10001  1.06314E-02  3.96809E+02 -1.00000E+00  1.03385E-01
       1    -1     0     0   501     0  0.000000000E+00  0.000000000E+00  5.279613978E+02  5.279613978E+02  0.000000000E+00  0.00000E+00  9.000E+00
       2    -1     0     0   502     0  0.000000000E+00  0.000000000E+00 -3.078563270E+02  3.078563270E+02  0.000000000E+00  0.00000E+00  9.000E+00
      23     2     1     2     0     0  6.357635726E+01 -1.697383509E+02 -1.063715694E+02  2.290921716E+02  9.118800000E+01  0.00000E+00  9.000E+00
     -13     1     3     3     0     0  8.309418984E+00 -5.426083538E+01  1.033559712E+01  5.585803828E+01  1.057000000E-01  0.00000E+00  9.000E+00
      13     1     3     3     0     0  5.526693828E+01 -1.154775155E+02 -1.167071665E+02  1.732341333E+02  1.057000000E-01  0.00000E+00  9.000E+00
       2     1     1     2   501     0  1.053311133E+02  7.869664399E+01  1.027292845E+02  1.668568848E+02  3.300000000E-01  0.00000E+00  9.000E+00
       1     1     1     2   511     0 -1.094256228E+02  3.768759380E+01 -7.012851968E+01  1.353234637E+02  3.300000000E-01  0.00000E+00  9.000E+00
      21     1     1     2   502   511 -5.948184779E+01  5.335411309E+01  2.938758754E+02  3.045452047E+02  3.814697266E-06  0.00000E+00  9.000E+00
</event>
<event>
      8  10001  1.09643E-02  3.13052E+02 -1.00000E+00  1.06694E-01
       3    -1     0     0   501     0  0.000000000E+00  0.000000000E+00  1.004794251E+03  1.004794251E+03  0.000000000E+00  0.00000E+00  9.000E+00
      -1    -1     0     0     0   502  0.000000000E+00  0.000000000E+00 -1.738908626E+02  1.738908626E+02  0.000000000E+00  0.00000E+00  9.000E+00
      23     2     1     2     0     0 -2.113779734E+02  1.003003603E+02 -4.950376394E+01  2.559427356E+02  9.118800000E+01  0.00000E+00  9.000E+00
     -13     1     3     3     0     0 -8.933396779E+01  7.035540958E-01 -4.070111290E+01  9.817150582E+01  1.057000000E-01  0.00000E+00  9.000E+00
      13     1     3     3     0     0 -1.220440056E+02  9.959680618E+01 -8.802651041E+00  1.577712298E+02  1.057000000E-01  0.00000E+00  9.000E+00
       4     1     1     2   501     0  7.309094639E+01 -2.555812330E+01  3.110660423E+02  3.205617519E+02  1.500000000E+00  0.00000E+00  9.000E+00
      -2     1     1     2     0   512  2.126340269E+01  2.586621521E+01  4.835312709E+01  5.881604528E+01  3.300000000E-01  0.00000E+00  9.000E+00
      21     1     1     2   512   502  1.170236244E+02 -1.006084522E+02  5.209879825E+02  5.433645804E+02  2.157918644E-05  0.00000E+00  9.000E+00
</event>
<event>
      8  10001  1.05279E-02  1.90757E+03 -1.00000E+00  8.58243E-02
       2    -1     0     0   501     0  0.000000000E+00  0.000000000E+00  1.638818313E+03  1.638818313E+03  0.000000000E+00  0.00000E+00  9.000E+00
       2    -1     0     0   502     0  0.000000000E+00  0.000000000E+00 -1.360219553E+03  1.360219553E+03  0.000000000E+00  0.00000E+00  9.000E+00
      23     2     1     2     0     0 -3.303590510E+02  9.494869612E+02  1.168863144E+03  1.544415389E+03  9.118800000E+01  0.00000E+00  9.000E+00
     -13     1     3     3     0     0 -5.059019026E+01  8.525284894E+01  8.832621216E+01  1.327740431E+02  1.057000000E-01  0.00000E+00  9.000E+00
      13     1     3     3     0     0 -2.797688608E+02  8.642341122E+02  1.080536932E+03  1.411641346E+03  1.057000000E-01  0.00000E+00  9.000E+00
       2     1     1     2   511     0 -3.467143253E+00  3.601479040E+01  2.002591457E+01  4.135495573E+01  3.300000000E-01  0.00000E+00  9.000E+00
       2     1     1     2   502     0 -2.068947457E+01 -3.711461774E+02 -3.184093892E+02  4.894509040E+02  3.300000000E-01  0.00000E+00  9.000E+00
      21     1     1     2   501   511  3.545156689E+02 -6.143555742E+02 -5.918809095E+02  9.238166171E+02  1.705984480E-05  0.00000E+00  9.000E+00
</event>
<event>
      8  10001  1.60042E-02  3.45644E+01 -1.00000E+00  1.52387E-01
       2    -1     0     0   501     0  0.000000000E+00  0.000000000E+00  2.321805863E+03  2.321805863E+03  0.000000000E+00  0.00000E+00  9.000E+00
      -4    -1     0     0     0   502  0.000000000E+00  0.000000000E+00 -4.869543064E+00  4.869543064E+00  0.000000000E+00  0.00000E+00  9.000E+00
      23     2     1     2     0     0  3.906555433E+01  6.799153026E+01  1.221087113E+03  1.226995499E+03  9.118800000E+01  0.00000E+00  9.000E+00
     -13     1     3     3     0     0  3.826963279E+01  9.014477386E+01  9.694842373E+02  9.744179507E+02  1.057000000E-01  0.00000E+00  9.000E+00
      13     1     3     3     0     0  7.959215418E-01 -2.215324360E+01  2.516028755E+02  2.525775481E+02  1.057000000E-01  0.00000E+00  9.000E+00
       2     1     1     2   511     0  1.414126294E+00  6.073881554E+00  5.146040320E+01  5.183795701E+01  3.300000000E-01  0.00000E+00  9.000E+00
      -4     1     1     2     0   502 -3.247069123E+01 -5.836283300E+01  8.715894207E+02  8.741458313E+02  1.500000000E+00  0.00000E+00  9.000E+00
      21     1     1     2   501   511 -8.008989392E+00 -1.570257881E+01  1.727993831E+02  1.736961188E+02  3.303624740E-06  0.00000E+00  9.000E+00
</event>
<event>
      8  10001  1.05644E-02  3.02121E+02 -1.00000E+00  1.07209E-01
      -2    -1     0     0     0   501  0.000000000E+00  0.000000000E+00  8.761989266E+02  8.761989266E+02  0.000000000E+00  0.00000E+00  9.000E+00
       4    -1     0     0   502     0  0.000000000E+00  0.000000000E+00 -1.241329685E+02  1.241329685E+02  0.000000000E+00  0.00000E+00  9.000E+00
      23     2     1     2     0     0  2.369009514E+01 -2.548553778E+01  1.240213980E+02  1.578204415E+02  9.118800000E+01  0.00000E+00  9.000E+00
     -13     1     3     3     0     0  2.452289676E+01 -3.639720951E+01  1.232004060E+01  4.558425056E+01  1.057000000E-01  0.00000E+00  9.000E+00
      13     1     3     3     0     0 -8.328016190E-01  1.091167173E+01  1.117013574E+02  1.122361909E+02  1.057000000E-01  0.00000E+00  9.000E+00
      -1     1     1     2     0   511  1.684663867E+02 -4.604171370E+01  4.064635510E+02  4.423951740E+02  3.300000000E-01  0.00000E+00  9.000E+00
       3     1     1     2   502     0 -1.835895927E+02  3.620846098E+00  2.625163151E+02  3.203643469E+02  5.000000000E-01  0.00000E+00  9.000E+00
      21     1     1     2   511   501 -8.566889066E+00  6.790640539E+01 -4.093530598E+01  7.975193262E+01  2.977847099E-06  0.00000E+00  9.000E+00
</event>
<event>
      8  10001  1.09416E-02  3.15939E+02 -1.00000E+00  1.06562E-01
      -3    -1     0     0     0   501  0.000000000E+00  0.000000000E+00  3.678483205E+02  3.678483205E+02  0.000000000E+00  0.00000E+00  9.000E+00
       1    -1     0     0   502     0  0.000000000E+00  0.000000000E+00 -3.393336001E+02  3.393336001E+02  0.000000000E+00  0.00000E+00  9.000E+00
      23     2     1     2     0     0  1.543879024E+01 -1.666912615E+02 -2.375680082E+02  3.045950472E+02  9.118800000E+01  0.00000E+00  9.000E+00
     -13     1     3     3     0     0 -3.525091499E+01 -5.978801190E+01 -1.144014192E+02  1.338093018E+02  1.057000000E-01  0.00000E+00  9.000E+00
      13     1     3     3     0     0  5.068970523E+01 -1.069032496E+02 -1.231665890E+02  1.707857453E+02  1.057000000E-01  0.00000E+00  9.000E+00
      -4     1     1     2     0   501 -4.198046701E+01  8.331490571E+01  1.769150021E+02  2.000122523E+02  1.500000000E+00  0.00000E+00  9.000E+00
       2     1     1     2   511     0 -8.012390984E+00 -2.025398827E+01 -3.246007397E+01  3.909204206E+01  3.300000000E-01  0.00000E+00  9.000E+00
      21     1     1     2   502   511  3.455406775E+01  1.036303440E+02  1.216278005E+02  1.634825791E+02  4.046097457E-06  0.00000E+00  9.000E+00
</event>
<event>
      8  10001  1.05769E-02  1.73089E+02 -1.00000E+00  1.15994E-01
      -1    -1     0     0     0   501  0.000000000E+00  0.000000000E+00  1.595196922E+02  1.595196922E+02  0.000000000E+00  0.00000E+00  9.000E+00
       3    -1     0     0   502     0  0.000000000E+00  0.000000000E+00 -1.168684273E+03  1.168684273E+03  0.000000000E+00  0.00000E+00  9.000E+00
      23     2     1     2     0     0  2.052320318E+02 -1.687638378E+01 -5.961088118E+02  6.372330548E+02  9.118800000E+01  0.00000E+00  9.000E+00
     -13     1     3     3     0     0  1.069693778E+02 -4.210108167E+01 -4.033001419E+02  4.193637615E+02  1.057000000E-01  0.00000E+00  9.000E+00
      13     1     3     3     0     0  9.826265405E+01  2.522469788E+01 -1.928086699E+02  2.178692932E+02  1.057000000E-01  0.00000E+00  9.000E+00
      -2     1     1     2     0   501 -3.017830951E+02  1.399052545E+02 -2.359600301E+02  4.078281028E+02  3.300000000E-01  0.00000E+00  9.000E+00
       4     1     1     2   512     0  3.867140700E+01 -8.292531649E+01 -1.906127619E+02  2.114416251E+02  1.500000000E+00  0.00000E+00  9.000E+00
      21     1     1     2   502   512  5.787965624E+01 -4.010355420E+01  1.351702306E+01  7.170118255E+01  2.236564522E-06  0.00000E+00  9.000E+00
</event>
<event>
      8  10001  2.07635E-02  2.43975E+01 -1.00000E+00  1.63592E-01
       2    -1     0     0   501     0  0.000000000E+00  0.000000000E+00  7.625097112E+02  7.625097112E+02  0.000000000E+00  0.00000E+00  9.000E+00
       1    -1     0     0   502     0  0.000000000E+00  0.000000000E+00 -3.006358351E+01  3.006358351E+01  0.000000000E+00  0.00000E+00  9.000E+00
      23     2     1     2     0     0  1.348858725E+00  1.263416081E+00  5.835404624E+01  1.082767828E+02  9.118800000E+01  0.00000E+00  9.000E+00
     -13     1     3     3     0     0 -9.164319227E+00 -3.778899271E+01  5.545604750E+01  6.773017861E+01  1.057000000E-01  0.00000E+00  9.000E+00
      13     1     3     3     0     0  1.051317795E+01  3.905240880E+01  2.897998735E+00  4.054660420E+01  1.057000000E-01  0.00000E+00  9.000E+00
       2     1     1     2   501     0  1.249547219E+01  1.423319547E+01  6.362055638E+02  6.364875089E+02  3.300000000E-01  0.00000E+00  9.000E+00
       1     1     1     2   511     0 -1.061580004E+01 -8.686898582E+00  3.786320824E+01  4.027268125E+01  3.300000000E-01  0.00000E+00  9.000E+00
      21     1     1     2   502   511 -3.228530881E+00 -6.809712970E+00  2.330944035E-02  7.536321763E+00  8.349027038E-07  0.00000E+00  9.000E+00
</event>
<event>
      8  10001  1.11642E-02  2.73336E+02 -1.00000E+00  1.08687E-01
       1    -1     0     0   501     0  0.000000000E+00  0.000000000E+00  2.647510572E+01  2.647510572E+01  0.000000000E+00  0.00000E+00  9.000E+00
       2    -1     0     0   502     0  0.000000000E+00  0.000000000E+00 -2.108371126E+03  2.108371126E+03  0.000000000E+00  0.00000E+00  9.000E+00
      23     2     1     2     0     0 -1.305538479E+01  1.087205744E+02 -3.377781740E+02  3.666059908E+02  9.118800000E+01  0.00000E+00  9.000E+00
     -13     1     3     3     0     0  2.265293036E+01  6.201510347E+01 -2.647231366E+02  2.728321435E+02  1.057000000E-01  0.00000E+00  9.000E+00
      13     1     3     3     0     0 -3.570831515E+01  4.670547093E+01 -7.305503737E+01  9.377384734E+01  1.057000000E-01  0.00000E+00  9.000E+00
       2     1     1     2   512     0  2.999498458E+00 -6.713614594E+01 -1.403176763E+02  1.555809059E+02  3.300000000E-01  0.00000E+00  9.000E+00
       1     1     1     2   502     0 -3.003648385E+01 -6.444378397E+01 -3.105245699E+02  3.185605266E+02  3.300000000E-01  0.00000E+00  9.000E+00
      21     1     1     2   501   512  4.009237019E+01  2.285935551E+01 -1.293275601E+03  1.294098809E+03  3.051757813E-05  0.00000E+00  9.000E+00
</event>
<event>
      8  10001  4.72082E-02  3.71687E+01 -1.00000E+00  1.50246E-01
       4    -1     0     0   501     0  0.000000000E+00  0.000000000E+00  8.286928366E+01  8.286928366E+01  0.000000000E+00  0.00000E+00  9.000E+00
      -4    -1     0     0     0   502  0.000000000E+00  0.000000000E+00 -1.485028315E+02  1.485028315E+02  0.000000000E+00  0.00000E+00  9.000E+00
      23     2     1     2     0     0 -2.735380357E+01  1.209819201E+00  1.331104777E+01  9.613599518E+01  9.118800000E+01  0.00000E+00  9.000E+00
     -13     1     3     3     0     0 -4.417797385E+01  1.554465954E+01 -2.410991587E+01  5.267474755E+01  1.057000000E-01  0.00000E+00  9.000E+00
      13     1     3     3     0     0  1.682417028E+01 -1.433484034E+01  3.742096363E+01  4.346124763E+01  1.057000000E-01  0.00000E+00  9.000E+00
       4     1     1     2   511     0  2.080132913E+01  3.496155540E+00 -9.476776409E+00  2.317277904E+01  1.500000000E+00  0.00000E+00  9.000E+00
      -4     1     1     2     0   502 -2.240511225E+00 -8.155766667E+00 -8.950247527E+01  8.991373366E+01  1.500000000E+00  0.00000E+00  9.000E+00
      21     1     1     2   501   511  8.792985667E+00  3.449791925E+00  2.003465605E+01  2.214960732E+01  2.384185791E-07  0.00000E+00  9.000E+00
</event>
<event>
      8  10001  2.80421E-02  5.50731E+01 -1.00000E+00  1.39654E-01
       2    -1     0     0   501     0  0.000000000E+00  0.000000000E+00  2.137865480E+01  2.137865480E+01  0.000000000E+00  0.00000E+00  9.000E+00
       1    -1     0     0   502     0  0.000000000E+00  0.000000000E+00 -3.473336803E+02  3.473336803E+02  0.000000000E+00  0.00000E+00  9.000E+00
      23     2     1     2     0     0 -3.881125587E+00  4.760803546E+00 -1.533749046E+02  1.785408667E+02  9.118800000E+01  0.00000E+00  9.000E+00
     -13     1     3     3     0     0 -3.022135246E+01 -1.405173421E+01 -1.521030385E+01  3.663530939E+01  1.057000000E-01  0.00000E+00  9.000E+00
      13     1     3     3     0     0  2.634022688E+01  1.881253775E+01 -1.381646007E+02  1.419055573E+02  1.057000000E-01  0.00000E+00  9.000E+00
       2     1     1     2   501     0 -1.487481474E+01  3.886067006E+00 -1.203083974E+00  1.542458886E+01  3.300000000E-01  0.00000E+00  9.000E+00
       1     1     1     2   511     0  9.566031004E+00 -2.515202113E-01 -1.449607370E+01  1.737288877E+01  3.300000000E-01  0.00000E+00  9.000E+00
      21     1     1     2   502   511  9.189909326E+00 -8.395350341E+00 -1.568809632E+02  1.573739907E+02  6.607249480E-06  0.00000E+00  9.000E+00
</event>
<event>
      8  10001  1.32654E-02  2.39223E+01 -1.00000E+00  1.64276E-01
       2    -1     0     0   501     0  0.000000000E+00  0.000000000E+00  6.433448808E+02  6.433448808E+02  0.000000000E+00  0.00000E+00  9.000E+00
      -2    -1     0     0     0   502  0.000000000E+00  0.000000000E+00 -5.940531155E+01  5.940531155E+01  0.000000000E+00  0.00000E+00  9.000E+00
      23     2     1     2     0     0 -8.543470235E+01 -1.209927788E+01  5.925192112E+02  6.056729711E+02  9.118800000E+01  0.00000E+00  9.000E+00
     -13     1     3     3     0     0 -2.645099104E-01 -1.930785773E+01  3.076835339E+02  3.082888767E+02  1.057000000E-01  0.00000E+00  9.000E+00
      13     1     3     3     0     0 -8.517019244E+01  7.208579845E+00  2.848356774E+02  2.973840944E+02  1.057000000E-01  0.00000E+00  9.000E+00
       1     1     1     2   512     0  1.421286910E+01 -8.518791884E-01  1.232697838E+00  1.429544648E+01  3.300000000E-01  0.00000E+00  9.000E+00
      -1     1     1     2     0   502  5.463190331E+01  2.261588781E+01  3.792467945E+00  5.925044265E+01  3.300000000E-01  0.00000E+00  9.000E+00
      21     1     1     2   501   512  1.658992994E+01 -9.664730746E+00 -1.360480778E+01  2.353133210E+01  1.760104067E-06  0.00000E+00  9.000E+00
</event>
<event>
      8  10001  1.11788E-02  1.76538E+02 -1.00000E+00  1.15658E-01
       2    -1     0     0   501     0  0.000000000E+00  0.000000000E+00  5.997695895E+02  5.997695895E+02  0.000000000E+00  0.00000E+00  9.000E+00
       1    -1     0     0   502     0  0.000000000E+00  0.000000000E+00 -5.958381243E+02  5.958381243E+02  0.000000000E+00  0.00000E+00  9.000E+00
      23     2     1     2     0     0  3.383363440E+02 -2.040385288E+02  3.963558248E+02  5.670241565E+02  9.118800000E+01  0.00000E+00  9.000E+00
     -13     1     3     3     0     0  3.343122281E+01 -3.279720779E+01  9.281272731E+01  1.039592084E+02  1.057000000E-01  0.00000E+00  9.000E+00
      13     1     3     3     0     0  3.049051212E+02 -1.712413210E+02  3.035430975E+02  4.630649480E+02  1.057000000E-01  0.00000E+00  9.000E+00
       1     1     1     2   511     0  1.185766955E+01  4.726568621E+00 -3.436356103E+00  1.322354799E+01  3.300000000E-01  0.00000E+00  9.000E+00
       2     1     1     2   502     0 -3.579331562E+02  1.527537215E+02 -2.357156521E+02  4.549855177E+02  3.300000000E-01  0.00000E+00  9.000E+00
      21     1     1     2   501   511  7.739142653E+00  4.655823866E+01 -1.532723513E+02  1.603744917E+02  5.722045898E-06  0.00000E+00  9.000E+00
</event>
<event>
      8  10001  1.05934E-02  2.75535E+02 -1.00000E+00  1.08567E-01
      -1    -1     0     0     0   501  0.000000000E+00  0.000000000E+00  3.339922264E+02  3.339922264E+02  0.000000000E+00  0.00000E+00  9.000E+00
       1    -1     0     0   502     0  0.000000000E+00  0.000000000E+00 -4.968634191E+02  4.968634191E+02  0.000000000E+00  0.00000E+00  9.000E+00
      23     2     1     2     0     0  5.710729988E+01  8.962075961E+01  1.455470038E+02  2.019710522E+02  9.118800000E+01  0.00000E+00  9.000E+00
     -13     1     3     3     0     0 -4.718371071E+00  7.323040976E+01  5.793530877E+01  9.349581335E+01  1.057000000E-01  0.00000E+00  9.000E+00
      13     1     3     3     0     0  6.182567095E+01  1.639034984E+01  8.761169502E+01  1.084752388E+02  1.057000000E-01  0.00000E+00  9.000E+00
      -2     1     1     2     0   511 -9.124533758E+01  7.569949724E+01  1.159494825E+02  1.658327980E+02  3.300000000E-01  0.00000E+00  9.000E+00
       2     1     1     2   502     0 -7.941364427E+00 -1.267940189E+02 -2.676083878E+02  2.962332638E+02  3.300000000E-01  0.00000E+00  9.000E+00
      21     1     1     2   511   501  4.207940213E+01 -3.852623795E+01 -1.567592911E+02  1.668185315E+02  5.394796609E-06  0.00000E+00  9.000E+00
</event>
<event>
      8  10001  1.10895E-02  4.40755E+02 -1.00000E+00  1.01985E-01
       1    -1     0     0   501     0  0.000000000E+00  0.000000000E+00  4.269369184E+02  4.269369184E+02  0.000000000E+00  0.00000E+00  9.000E+00
       2    -1     0     0   502     0  0.000000000E+00  0.000000000E+00 -3.271289891E+02  3.271289891E+02  0.000000000E+00  0.00000E+00  9.000E+00
      23     2     1     2     0     0 -2.334806624E+02 -1.611378432E+02 -5.819233681E+01  3.036119623E+02  9.118800000E+01  0.00000E+00  9.000E+00
     -13     1     3     3     0     0 -1.306849923E+01 -3.154665701E+01 -3.163813805E+01  4.655061968E+01  1.057000000E-01  0.00000E+00  9.000E+00
      13     1     3     3     0     0 -2.204121632E+02 -1.295911862E+02 -2.655419877E+01  2.570613426E+02  1.057000000E-01  0.00000E+00  9.000E+00
       2     1     1     2   511     0 -1.497951371E+01 -4.104137940E+01  7.428070024E+01  8.617721266E+01  3.300000000E-01  0.00000E+00  9.000E+00
       1     1     1     2   502     0  5.835142333E+01  5.337785343E+01  9.374800861E+01  1.226494267E+02  3.300000000E-01  0.00000E+00  9.000E+00
      21     1     1     2   501   511  1.901087528E+02  1.488013691E+02 -1.002844273E+01  2.416273060E+02  4.682664714E-06  0.00000E+00  9.000E+00
</event>
<event>
      8  10001  1.11887E-02  1.93307E+02 -1.00000E+00  1.14137E-01
       2    -1     0     0   501     0  0.000000000E+00  0.000000000E+00  5.717484335E+02  5.717484335E+02  0.000000000E+00  0.00000E+00  9.000E+00
       1    -1     0     0   502     0  0.000000000E+00  0.000000000E+00 -2.257026680E+02  2.257026680E+02  0.000000000E+00  0.00000E+00  9.000E+00
      23     2     1     2     0     0  6.123648135E+01  6.441605844E+00  3.041920633E+02  3.234802368E+02  9.118800000E+01  0.00000E+00  9.000E+00
     -13     1     3     3     0     0 -1.166887669E+01 -2.623773636E+01  1.051919964E+02  1.090410416E+02  1.057000000E-01  0.00000E+00  9.000E+00
      13     1     3     3     0     0  7.290535804E+01  3.267934221E+01  1.990000669E+02  2.144391952E+02  1.057000000E-01  0.00000E+00  9.000E+00
       1     1     1     2   501     0  3.738032277E+01 -6.784632720E+00 -1.773739346E+02  1.813971922E+02  3.300000000E-01  0.00000E+00  9.000E+00
       2     1     1     2   511     0 -9.064733932E+01 -4.116228911E-01  1.954673549E+01  9.273237475E+01  3.300000000E-01  0.00000E+00  9.000E+00
      21     1     1     2   502   511 -7.969464799E+00  7.546497675E-01  1.996809014E+02  1.998412976E+02  5.394796609E-06  0.00000E+00  9.000E+00
</event>
<event>
      8  10001  1.12812E-02  4.16663E+02 -1.00000E+00  1.02730E-01
       2    -1     0     0   501     0  0.000000000E+00  0.000000000E+00  2.657961105E+03  2.657961105E+03  0.000000000E+00  0.00000E+00  9.000E+00
       1    -1     0     0   502     0  0.000000000E+00  0.000000000E+00 -4.755319483E+01  4.755319483E+01  0.000000000E+00  0.00000E+00  9.000E+00
      23     2     1     2     0     0  2.177526322E+00 -8.316861282E+00  1.709458505E+01  9.317396624E+01  9.118800000E+01  0.00000E+00  9.000E+00
     -13     1     3     3     0     0 -1.655688043E+01 -4.619342343E+01  1.271036807E+01  5.069050490E+01  1.057000000E-01  0.00000E+00  9.000E+00
      13     1     3     3     0     0  1.873440675E+01  3.787656215E+01  4.384216979E+00  4.248346134E+01  1.057000000E-01  0.00000E+00  9.000E+00
       1     1     1     2   501     0 -5.560436911E+01 -2.859621510E+01  6.312744718E+02  6.343635843E+02  3.300000000E-01  0.00000E+00  9.000E+00
       2     1     1     2   512     0  7.142955160E+01  1.560397862E+01  1.621513364E+02  1.778730721E+02  3.300000000E-01  0.00000E+00  9.000E+00
      21     1     1     2   502   512 -1.800270881E+01  2.130909776E+01  1.799887516E+03  1.800103677E+03  2.157918644E-05  0.00000E+00  9.000E+00
</event>
<event>
      8  10001  1.07873E-02  3.66570E+02 -1.00000E+00  1.04468E-01
       1    -1     0     0   501     0  0.000000000E+00  0.000000000E+00  2.320557395E+03  2.320557395E+03  0.000000000E+00  0.00000E+00  9.000E+00
       2    -1     0     0   502     0  0.000000000E+00  0.000000000E+00 -1.281185194E+02  1.281185194E+02  0.000000000E+00  0.00000E+00  9.000E+00
      23     2     1     2     0     0 -3.316813466E+01  2.416247493E+02  2.060605558E+03  2.076991372E+03  9.118800000E+01  0.00000E+00  9.000E+00
     -13     1     3     3     0     0  2.170607761E+01  9.318531887E+01  1.011673157E+03  1.016187603E+03  1.057000000E-01  0.00000E+00  9.000E+00
      13     1     3     3     0     0 -5.487421227E+01  1.484394304E+02  1.048932401E+03  1.060803769E+03  1.057000000E-01  0.00000E+00  9.000E+00
       2     1     1     2   511     0  2.221759970E+01 -6.032271671E+01  1.165919722E+02  1.331399593E+02  3.300000000E-01  0.00000E+00  9.000E+00
       1     1     1     2   502     0  7.720105164E+01 -6.065461934E+01  2.245879355E+01  1.007149022E+02  3.300000000E-01  0.00000E+00  9.000E+00
      21     1     1     2   501   511 -6.625051668E+01 -1.206474132E+02 -7.217447949E+00  1.378296805E+02  6.251387883E-07  0.00000E+00  9.000E+00
</event>
<event>
      8  10001  1.06567E-02  1.02859E+03 -1.00000E+00  9.19575E-02
       2    -1     0     0   501     0  0.000000000E+00  0.000000000E+00  6.802063521E+02  6.802063521E+02  0.000000000E+00  0.00000E+00  9.000E+00
       1    -1     0     0   502     0  0.000000000E+00  0.000000000E+00 -6.484896481E+02  6.484896481E+02  0.000000000E+00  0.00000E+00  9.000E+00
      23     2     1     2     0     0 -1.763218998E+00  3.014553690E+02 -3.242930612E+02  4.520615990E+02  9.118800000E+01  0.00000E+00  9.000E+00
     -13     1     3     3     0     0  3.574856007E+01  5.967489468E+01 -5.955710774E+01  9.157572199E+01  1.057000000E-01  0.00000E+00  9.000E+00
      13     1     3     3     0     0 -3.751177907E+01  2.417804743E+02 -2.647359534E+02  3.604858770E+02  1.057000000E-01  0.00000E+00  9.000E+00
       1     1     1     2   501     0 -1.063784972E+02  3.149337919E+01  9.349796140E+00  1.113361809E+02  3.300000000E-01  0.00000E+00  9.000E+00
       2     1     1     2   511     0 -7.119520283E+01 -7.932696267E+01 -1.472810296E+02  1.818057604E+02  3.300000000E-01  0.00000E+00  9.000E+00
      21     1     1     2   502   511  1.793369190E+02 -2.536217855E+02  4.939409987E+02  5.834924599E+02  1.705984480E-05  0.00000E+00  9.000E+00
</event>
<event>
      8  10001  1.30269E-02  3.82133E+01 -1.00000E+00  1.49446E-01
      -1    -1     0     0     0   501  0.000000000E+00  0.000000000E+00  2.167551617E+02  2.167551617E+02  0.000000000E+00  0.00000E+00  9.000E+00
       1    -1     0     0   502     0  0.000000000E+00  0.000000000E+00 -5.647329493E+02  5.647329493E+02  0.000000000E+00  0.00000E+00  9.000E+00
      23     2     1     2     0     0 -1.145325078E+02  5.409437011E+01 -5.289494988E+02  5.514949863E+02  9.118800000E+01  0.00000E+00  9.000E+00
     -13     1     3     3     0     0 -1.471703156E+01  2.738123733E+01 -3.481897229E+01  4.667649494E+01  1.057000000E-01  0.00000E+00  9.000E+00
      13     1     3     3     0     0 -9.981547626E+01  2.671313278E+01 -4.941305265E+02  5.048184913E+02  1.057000000E-01  0.00000E+00  9.000E+00
      -2     1     1     2     0   501  8.525341889E+01 -4.321160834E+01  8.731136925E+01  1.294556782E+02  3.300000000E-01  0.00000E+00  9.000E+00
       2     1     1     2   512     0  1.107583736E+01 -7.116046547E+00  1.619713699E+01  2.087506739E+01  3.300000000E-01  0.00000E+00  9.000E+00
      21     1     1     2   502   512  1.820325158E+01 -3.766715225E+00  7.746320497E+01  7.966237905E+01  9.536743164E-07  0.00000E+00  9.000E+00
</event>
<event>
      8  10001  1.23000E-02  1.38335E+02 -1.00000E+00  1.19959E-01
       1    -1     0     0   501     0  0.000000000E+00  0.000000000E+00  7.840573520E+01  7.840573520E+01  0.000000000E+00  0.00000E+00  9.000E+00
       2    -1     0     0   502     0  0.000000000E+00  0.000000000E+00 -1.414651890E+03  1.414651890E+03  0.000000000E+00  0.00000E+00  9.000E+00
      23     2     1     2     0     0 -7.694083773E+01 -1.643964672E+02 -9.272679926E+02  9.492561679E+02  9.118800000E+01  0.00000E+00  9.000E+00
     -13     1     3     3     0     0  8.863966842E+00 -1.425510632E+01 -2.229075244E+01  2.790460143E+01  1.057000000E-01  0.00000E+00  9.000E+00
      13     1     3     3     0     0 -8.580480457E+01 -1.501413608E+02 -9.049772402E+02  9.213515665E+02  1.057000000E-01  0.00000E+00  9.000E+00
       2     1     1     2   511     0  4.079968186E+01  1.820869434E+01 -5.331365152E+01  6.956022519E+01  3.300000000E-01  0.00000E+00  9.000E+00
       1     1     1     2   502     0  7.773272506E+01  1.744222483E+02 -1.036782376E+02  2.172896296E+02  3.300000000E-01  0.00000E+00  9.000E+00
      21     1     1     2   501   511 -4.159156919E+01 -2.823447550E+01 -2.519862734E+02  2.569516028E+02  5.394796609E-06  0.00000E+00  9.000E+00
</event>
<event>
      8  10001  1.18441E-02  3.53346E+02 -1.00000E+00  1.04978E-01
       3    -1     0     0   501     0  0.000000000E+00  0.000000000E+00  3.926336698E+02  3.926336698E+02  0.000000000E+00  0.00000E+00  9.000E+00
       4    -1     0     0   502     0  0.000000000E+00  0.000000000E+00 -1.705713168E+02  1.705713168E+02  0.000000000E+00  0.00000E+00  9.000E+00
      23     2     1     2     0     0  2.121600603E+01  7.389788727E+01 -1.095241324E+02  1.619314780E+02  9.118800000E+01  0.00000E+00  9.000E+00
     -13     1     3     3     0     0  3.016000991E+01  3.071120181E+01  8.704453864E-01  4.305314114E+01  1.057000000E-01  0.00000E+00  9.000E+00
      13     1     3     3     0     0 -8.944003881E+00  4.318668546E+01 -1.103945778E+02  1.188783369E+02  1.057000000E-01  0.00000E+00  9.000E+00
       3     1     1     2   501     0 -4.439615996E+01 -1.520739694E+01  6.140943894E+01  7.728941151E+01  5.000000000E-01  0.00000E+00  9.000E+00
       4     1     1     2   511     0  1.173893302E+01 -2.317517240E+01 -1.911976225E+01  3.229096581E+01  1.500000000E+00  0.00000E+00  9.000E+00
      21     1     1     2   502   511  1.144122091E+01 -3.551531793E+01  2.892968087E+02  2.916931313E+02  3.814697266E-06  0.00000E+00  9.000E+00
</event>
<event>
      8  10001  1.62380E-02  1.48179E+02 -1.00000E+00  1.18714E-01
       3    -1     0     0   501     0  0.000000000E+00  0.000000000E+00  7.895809421E+00  7.895809421E+00  0.000000000E+00  0.00000E+00  9.000E+00
       1    -1     0     0   502     0  0.000000000E+00  0.000000000E+00 -2.534273903E+03  2.534273903E+03  0.000000000E+00  0.00000E+00  9.000E+00
      23     2     1     2     0     0 -4.605074901E+01 -3.275581649E+01 -4.616115108E+02  4.739135504E+02  9.118800000E+01  0.00000E+00  9.000E+00
     -13     1     3     3     0     0  1.287183522E+00 -5.388072485E+01 -2.752388825E+02  2.804661174E+02  1.057000000E-01  0.00000E+00  9.000E+00
      13     1     3     3     0     0 -4.733793253E+01  2.112490837E+01 -1.863726282E+02  1.934474330E+02  1.057000000E-01  0.00000E+00  9.000E+00
       3     1     1     2   512     0 -3.153401251E+00  2.801158569E+00 -2.136134608E+00  4.754313815E+00  5.000000000E-01  0.00000E+00  9.000E+00
       1     1     1     2   502     0  2.487461044E+01  6.498171585E+00 -7.675442162E+02  7.679747426E+02  3.300000000E-01  0.00000E+00  9.000E+00
      21     1     1     2   501   512  2.432953982E+01  2.345648633E+01 -1.295086232E+03  1.295527105E+03  4.825252777E-05  0.00000E+00  9.000E+00
</event>
<event>
      8  10001  2.00326E-02  3.45678E+01 -1.00000E+00  1.52384E-01
      -3    -1     0     0     0   501  0.000000000E+00  0.000000000E+00  1.735795578E+02  1.735795578E+02  0.000000000E+00  0.00000E+00  9.000E+00
      21    -1     0     0   502   511  0.000000000E+00  0.000000000E+00 -9.880037498E+01  9.880037498E+01  0.000000000E+00  0.00000E+00  9.000E+00
      23     2     1     2     0     0  1.117592966E+01  5.314640406E+01  5.265883228E+01  1.184805707E+02  9.118800000E+01  0.00000E+00  9.000E+00
     -13     1     3     3     0     0 -2.896671006E+01  4.285663098E+01  3.285162220E-01  5.172891074E+01  1.057000000E-01  0.00000E+00  9.000E+00
      13     1     3     3     0     0  4.014263972E+01  1.028977308E+01  5.233031606E+01  6.675165995E+01  1.057000000E-01  0.00000E+00  9.000E+00
      -4     1     1     2     0   501  2.591044111E+01 -5.705949302E+01  5.659198001E+01  8.445139965E+01  1.500000000E+00  0.00000E+00  9.000E+00
       2     1     1     2   502     0 -8.254098440E+00 -1.514943964E+01  4.016620323E+00  1.771659678E+01  3.300000000E-01  0.00000E+00  9.000E+00
      -1     1     1     2     0   511 -2.883227233E+01  1.906252860E+01 -3.848824978E+01  5.173136568E+01  3.300000000E-01  0.00000E+00  9.000E+00
</event>
<event>
      8  10001  1.88733E-02  3.24054E+01 -1.00000E+00  1.54341E-01
      -3    -1     0     0     0   501  0.000000000E+00  0.000000000E+00  5.964618340E+02  5.964618340E+02  0.000000000E+00  0.00000E+00  9.000E+00
      -4    -1     0     0     0   502  0.000000000E+00  0.000000000E+00 -1.362645693E+01  1.362645693E+01  0.000000000E+00  0.00000E+00  9.000E+00
      23     2     1     2     0     0 -7.263294679E-01 -9.538307039E+00  4.481553178E+02  4.574384626E+02  9.118800000E+01  0.00000E+00  9.000E+00
     -13     1     3     3     0     0 -2.719748176E+01 -3.791879622E+01  1.595056477E+02  1.661914587E+02  1.057000000E-01  0.00000E+00  9.000E+00
      13     1     3     3     0     0  2.647115229E+01  2.838048918E+01  2.886496701E+02  2.912470039E+02  1.057000000E-01  0.00000E+00  9.000E+00
      -3     1     1     2     0   511 -7.497704140E+00  1.140066621E+01  1.455042704E+01  1.995383884E+01  5.000000000E-01  0.00000E+00  9.000E+00
      -4     1     1     2     0   502  1.567660245E+01 -1.150735539E+00  3.951788949E+00  1.627718319E+01  1.500000000E+00  0.00000E+00  9.000E+00
      21     1     1     2   511   501 -7.452568842E+00 -7.116236348E-01  1.161778433E+02  1.164188063E+02  1.348699152E-06  0.00000E+00  9.000E+00
</event>
<event>
      8  10001  1.29222E-02  1.30682E+02 -1.00000E+00  1.21010E-01
       4    -1     0     0   501     0  0.000000000E+00  0.000000000E+00  7.657854426E+00  7.657854426E+00  0.000000000E+00  0.00000E+00  9.000E+00
       1    -1     0     0   502     0  0.000000000E+00  0.000000000E+00 -2.515837030E+03  2.515837030E+03  0.000000000E+00  0.00000E+00  9.000E+00
      23     2     1     2     0     0 -3.406170097E+01 -1.126475663E+01 -8.041015218E+02  8.100503707E+02  9.118800000E+01  0.00000E+00  9.000E+00
     -13     1     3     3     0     0  1.342752315E+01 -2.227719895E+01 -7.618030338E+01  8.049858238E+01  1.057000000E-01  0.00000E+00  9.000E+00
      13     1     3     3     0     0 -4.748922412E+01  1.101244231E+01 -7.279212185E+02  7.295517883E+02  1.057000000E-01  0.00000E+00  9.000E+00
       4     1     1     2   501     0  4.269344707E+01 -1.918510211E+01 -1.427014144E+02  1.501890217E+02  1.500000000E+00  0.00000E+00  9.000E+00
       1     1     1     2   511     0 -1.123193328E+01  1.726641494E+01 -1.158890466E+02  1.177058428E+02  3.300000000E-01  0.00000E+00  9.000E+00
      21     1     1     2   502   511  2.600187182E+00  1.318344380E+01 -1.445487193E+03  1.445549649E+03  1.525878906E-05  0.00000E+00  9.000E+00
</event>
<event>
      8  10001  1.32675E-02  8.00556E+01 -1.00000E+00  1.30906E-01
       1    -1     0     0   501     0  0.000000000E+00  0.000000000E+00  3.758014835E+01  3.758014835E+01  0.000000000E+00  0.00000E+00  9.000E+00
       2    -1     0     0   502     0  0.000000000E+00  0.000000000E+00 -4.614123469E+02  4.614123469E+02  0.000000000E+00  0.00000E+00  9.000E+00
      23     2     1     2     0     0 -1.680403695E+01  6.298102098E+01 -9.983885855E+01  1.501067410E+02  9.118800000E+01  0.00000E+00  9.000E+00
     -13     1     3     3     0     0 -3.434190681E+01  8.036574690E+01 -7.782401299E+01  1.170239634E+02  1.057000000E-01  0.00000E+00  9.000E+00
      13     1     3     3     0     0  1.753786986E+01 -1.738472591E+01 -2.201484556E+01  3.308277757E+01  1.057000000E-01  0.00000E+00  9.000E+00
       1     1     1     2   501     0 -6.856595589E+00 -4.509685949E+01 -2.865573614E+02  2.901654182E+02  3.300000000E-01  0.00000E+00  9.000E+00
       2     1     1     2   512     0 -1.325279652E+00 -1.540635204E+00 -2.702123880E+01  2.709956031E+01  3.300000000E-01  0.00000E+00  9.000E+00
      21     1     1     2   502   512  2.498591219E+01 -1.634352628E+01 -1.041473986E+01  3.162077586E+01  5.331201500E-07  0.00000E+00  9.000E+00
</event>
<event>
      8  10001  1.14800E-02  2.48049E+02 -1.00000E+00  1.10160E-01
       3    -1     0     0   501     0  0.000000000E+00  0.000000000E+00  2.472896309E+01  2.472896309E+01  0.000000000E+00  0.00000E+00  9.000E+00
       2    -1     0     0   502     0  0.000000000E+00  0.000000000E+00 -1.976299280E+03  1.976299280E+03  0.000000000E+00  0.00000E+00  9.000E+00
      23     2     1     2     0     0  3.860883553E+01  2.892724083E+01 -1.133499451E+03  1.138184381E+03  9.118800000E+01  0.00000E+00  9.000E+00
     -13     1     3     3     0     0  1.854815311E+01 -7.504495128E+00 -9.423648628E+02  9.425772633E+02  1.057000000E-01  0.00000E+00  9.000E+00
      13     1     3     3     0     0  2.006068242E+01  3.643173596E+01 -1.911345884E+02  1.956071175E+02  1.057000000E-01  0.00000E+00  9.000E+00
       4     1     1     2   501     0  3.860096298E+01 -3.810856140E+01 -6.057011064E+02  6.081269416E+02  1.500000000E+00  0.00000E+00  9.000E+00
       1     1     1     2   511     0 -8.992990255E+00  3.811495072E+01 -1.580775855E+02  1.628565482E+02  3.300000000E-01  0.00000E+00  9.000E+00
      21     1     1     2   502   511 -6.821680826E+01 -2.893363015E+01 -5.429217349E+01  9.186037222E+01  1.027138673E-05  0.00000E+00  9.000E+00
</event>
<event>
      8  10001  1.07682E-02  2.10964E+02 -1.00000E+00  1.12710E-01
       3    -1     0     0   501     0  0.000000000E+00  0.000000000E+00  1.359132121E+02  1.359132121E+02  0.000000000E+00  0.00000E+00  9.000E+00
       4    -1     0     0   502     0  0.000000000E+00  0.000000000E+00 -4.303075778E+02  4.303075778E+02  0.000000000E+00  0.00000E+00  9.000E+00
      23     2     1     2     0     0 -6.302150769E+00  1.110650861E+02 -2.408584368E+01  1.458442651E+02  9.118800000E+01  0.00000E+00  9.000E+00
     -13     1     3     3     0     0  3.466443203E+01  6.035798520E+01  1.305552821E+01  7.081784531E+01  1.057000000E-01  0.00000E+00  9.000E+00
      13     1     3     3     0     0 -4.096658280E+01  5.070710088E+01 -3.714137189E+01  7.502641978E+01  1.057000000E-01  0.00000E+00  9.000E+00
       4     1     1     2   512     0  1.586418063E+01  1.496323565E+01  8.626705283E-01  2.187612508E+01  1.500000000E+00  0.00000E+00  9.000E+00
       3     1     1     2   502     0 -8.986298310E+01 -1.254607119E+02 -4.845999647E+01  1.617540331E+02  5.000000000E-01  0.00000E+00  9.000E+00
      21     1     1     2   501   512  8.030095324E+01 -5.676098454E-01 -2.227111961E+02  2.367463667E+02  1.044697871E-05  0.00000E+00  9.000E+00
</event>
<event>
      8  10001  1.07651E-02  2.04308E+02 -1.00000E+00  1.13229E-01
      -1    -1     0     0     0   501  0.000000000E+00  0.000000000E+00  3.508509352E+02  3.508509352E+02  0.000000000E+00  0.00000E+00  9.000E+00
       1    -1     0     0   502     0  0.000000000E+00  0.000000000E+00 -1.211570128E+02  1.211570128E+02  0.000000000E+00  0.00000E+00  9.000E+00
      23     2     1     2     0     0  3.810605898E+00  5.111546763E+00  2.383827977E+01  9.446779109E+01  9.118800000E+01  0.00000E+00  9.000E+00
     -13     1     3     3     0     0 -1.715056538E+01 -1.914909697E+00 -3.092283767E+01  3.541245309E+01  1.057000000E-01  0.00000E+00  9.000E+00
      13     1     3     3     0     0  2.096117128E+01  7.026456460E+00  5.476111743E+01  5.905533800E+01  1.057000000E-01  0.00000E+00  9.000E+00
      -2     1     1     2     0   511 -4.831531323E+01  8.785777422E+01  1.299630751E+02  1.641458735E+02  3.300000000E-01  0.00000E+00  9.000E+00
       2     1     1     2   502     0  5.672813519E+01 -3.942294967E+01  1.229761746E+02  1.410514045E+02  3.300000000E-01  0.00000E+00  9.000E+00
      21     1     1     2   511   501 -1.222342785E+01 -5.354637131E+01 -4.708360711E+01  7.234287890E+01  1.348699152E-06  0.00000E+00  9.000E+00
</event>
<event>
      8  10001  1.17016E-02  2.28330E+02 -1.00000E+00  1.11450E-01
      -2    -1     0     0     0   501  0.000000000E+00  0.000000000E+00  9.723152913E+01  9.723152913E+01  0.000000000E+00  0.00000E+00  9.000E+00
       2    -1     0     0   502     0  0.000000000E+00  0.000000000E+00 -3.945912000E+02  3.945912000E+02  0.000000000E+00  0.00000E+00  9.000E+00
      23     2     1     2     0     0 -4.083399211E+01 -3.673435105E+01 -5.322907361E+01  1.190185409E+02  9.118800000E+01  0.00000E+00  9.000E+00
     -13     1     3     3     0     0 -2.735141732E+00 -3.722776590E+01 -6.846758202E+01  7.798210381E+01  1.057000000E-01  0.00000E+00  9.000E+00
      13     1     3     3     0     0 -3.809885038E+01  4.934148564E-01  1.523850841E+01  4.103643710E+01  1.057000000E-01  0.00000E+00  9.000E+00
      -2     1     1     2     0   511  7.363750602E+01  6.472418288E+01 -3.216694622E+00  9.809259996E+01  3.300000000E-01  0.00000E+00  9.000E+00
       2     1     1     2   502     0 -1.975003436E+01 -1.531243711E+01  7.138754454E+00  2.599240856E+01  3.300000000E-01  0.00000E+00  9.000E+00
      21     1     1     2   511   501 -1.305347954E+01 -1.267739473E+01 -2.480526571E+02  2.487191797E+02  2.697398305E-06  0.00000E+00  9.000E+00
</event>
<event>
      8  10001  1.06013E-02  8.07444E+02 -1.00000E+00  9.46115E-02
       1    -1     0     0   501     0  0.000000000E+00  0.000000000E+00  1.111646679E+03  1.111646679E+03  0.000000000E+00  0.00000E+00  9.000E+00
       2    -1     0     0   502     0  0.000000000E+00  0.000000000E+00 -2.660068435E+02  2.660068435E+02  0.000000000E+00  0.00000E+00  9.000E+00
      23     2     1     2     0     0 -1.590731118E+02  1.117355981E+02  2.837865711E+02  3.558639741E+02  9.118800000E+01  0.00000E+00  9.000E+00
     -13     1     3     3     0     0 -6.432768809E+01  8.956302520E+01  1.047455107E+02  1.520895135E+02  1.057000000E-01  0.00000E+00  9.000E+00
      13     1     3     3     0     0 -9.474542367E+01  2.217257290E+01  1.790410604E+02  2.037744606E+02  1.057000000E-01  0.00000E+00  9.000E+00
       2     1     1     2   501     0  1.012310736E+01 -1.146039119E+02 -3.707469779E+00  1.151103304E+02  3.300000000E-01  0.00000E+00  9.000E+00
       1     1     1     2   511     0 -1.666543428E+02  1.193883308E+02 -4.470542577E+01  2.098235628E+02  3.300000000E-01  0.00000E+00  9.000E+00
      21     1     1     2   502   511  3.156043472E+02 -1.165200170E+02  6.102661598E+02  6.968556552E+02  0.000000000E+00  0.00000E+00  9.000E+00
</event>
<event>
      8  10001  1.07779E-02  1.00802E+03 -1.00000E+00  9.21732E-02
       2    -1     0     0   501     0  0.000000000E+00  0.000000000E+00  5.518638697E+02  5.518638697E+02  0.000000000E+00  0.00000E+00  9.000E+00
       2    -1     0     0   502     0  0.000000000E+00  0.000000000E+00 -8.865230279E+02  8.865230279E+02  0.000000000E+00  0.00000E+00  9.000E+00
      23     2     1     2     0     0 -8.266242770E+00  1.240226331E+01 -1.933369329E+02  2.142815155E+02  9.118800000E+01  0.00000E+00  9.000E+00
     -13     1     3     3     0     0  4.028379474E+01  1.618777034E+01 -9.956524881E+01  1.086189577E+02  1.057000000E-01  0.00000E+00  9.000E+00
      13     1     3     3     0     0 -4.855003751E+01 -3.785507035E+00 -9.377168411E+01  1.056625578E+02  1.057000000E-01  0.00000E+00  9.000E+00
       2     1     1     2   512     0 -7.278089728E-01  7.191076907E+01  3.288440917E+01  7.907706166E+01  3.300000000E-01  0.00000E+00  9.000E+00
       2     1     1     2   502     0  6.665580578E+01  7.835653053E+01  4.684439099E+02  4.796066596E+02  3.300000000E-01  0.00000E+00  9.000E+00
      21     1     1     2   501   512 -5.766175404E+01 -1.626695629E+02 -6.426505444E+02  6.654216609E+02  0.000000000E+00  0.00000E+00  9.000E+00
</event>
<event>
      8  10001  1.17600E-02  5.79208E+01 -1.00000E+00  1.38406E-01
       2    -1     0     0   501     0  0.000000000E+00  0.000000000E+00  1.045602658E+03  1.045602658E+03  0.000000000E+00  0.00000E+00  9.000E+00
      -2    -1     0     0     0   502  0.000000000E+00  0.000000000E+00 -2.356510932E+01  2.356510932E+01  0.000000000E+00  0.00000E+00  9.000E+00
      23     2     1     2     0     0  1.108344632E+02  7.247644107E+01  5.371649057E+02  5.607124932E+02  9.118800000E+01  0.00000E+00  9.000E+00
     -13     1     3     3     0     0  3.313100172E+01 -1.597869957E+01  7.166042633E+01  8.054942575E+01  1.057000000E-01  0.00000E+00  9.000E+00
      13     1     3     3     0     0  7.770346152E+01  8.845514064E+01  4.655044793E+02  4.801630674E+02  1.057000000E-01  0.00000E+00  9.000E+00
       2     1     1     2   501     0 -7.439132168E+01 -7.210032227E+01  3.604710856E+02  3.750627116E+02  3.300000000E-01  0.00000E+00  9.000E+00
      -2     1     1     2     0   511  1.520948614E+00  2.410129222E+00 -4.164269821E-01  2.899020349E+00  3.300000000E-01  0.00000E+00  9.000E+00
      21     1     1     2   511   502 -3.796409017E+01 -2.786248022E+00  1.248179845E+02  1.304935423E+02  3.303624740E-06  0.00000E+00  9.000E+00
</event>
<event>
      8  10001  5.57282E-02  3.06581E+01 -1.00000E+00  1.56062E-01
      -3    -1     0     0     0   501  0.000000000E+00  0.000000000E+00  8.563314813E+01  8.563314813E+01  0.000000000E+00  0.00000E+00  9.000E+00
      -4    -1     0     0     0   502  0.000000000E+00  0.000000000E+00 -1.031475091E+02  1.031475091E+02  0.000000000E+00  0.00000E+00  9.000E+00
      23     2     1     2     0     0 -1.671014020E+01 -3.585248733E+01  4.767361666E+01  1.102390797E+02  9.118800000E+01  0.00000E+00  9.000E+00
     -13     1     3     3     0     0 -5.109660562E+01 -6.748846520E+00  3.832961920E+01  6.423068515E+01  1.057000000E-01  0.00000E+00  9.000E+00
      13     1     3     3     0     0  3.438646541E+01 -2.910364081E+01  9.343997465E+00  4.600839459E+01  1.057000000E-01  0.00000E+00  9.000E+00
      -3     1     1     2     0   501  3.913781340E+00  8.914319082E+00 -1.854513388E+01  2.095124721E+01  5.000000000E-01  0.00000E+00  9.000E+00
      -4     1     1     2     0   512  1.022406023E+00 -5.836716295E-02 -1.192568542E+01  1.206319583E+01  1.500000000E+00  0.00000E+00  9.000E+00
      21     1     1     2   512   502  1.177395284E+01  2.699653541E+01 -3.471715838E+01  4.552713450E+01  6.743495762E-07  0.00000E+00  9.000E+00
</event>
<event>
      8  10001  1.07552E-02  2.36169E+02 -1.00000E+00  1.10920E-01
      -1    -1     0     0     0   501  0.000000000E+00  0.000000000E+00  9.717996945E+01  9.717996945E+01  0.000000000E+00  0.00000E+00  9.000E+00
      -2    -1     0     0     0   502  0.000000000E+00  0.000000000E+00 -5.028013765E+02  5.028013765E+02  0.000000000E+00  0.00000E+00  9.000E+00
      23     2     1     2     0     0  4.454245238E+01  2.337938956E+01 -2.496251802E+02  2.704784795E+02  9.118800000E+01  0.00000E+00  9.000E+00
     -13     1     3     3     0     0  5.765103634E+01  4.877667410E+01 -1.774656841E+02  1.928649427E+02  1.057000000E-01  0.00000E+00  9.000E+00
      13     1     3     3     0     0 -1.310858396E+01 -2.539728454E+01 -7.215949614E+01  7.761353677E+01  1.057000000E-01  0.00000E+00  9.000E+00
      -2     1     1     2     0   501 -6.674094184E+01  7.449189200E+01 -4.837458307E+01  1.111017753E+02  3.300000000E-01  0.00000E+00  9.000E+00
      -1     1     1     2     0   511  2.714274737E+01 -1.777348126E+01 -1.308852804E+02  1.348469165E+02  3.300000000E-01  0.00000E+00  9.000E+00
      21     1     1     2   511   502 -4.944257908E+00 -8.009780030E+01  2.326363668E+01  8.355417459E+01  5.840038640E-07  0.00000E+00  9.000E+00
</event>
<event>
      8  10001  2.03714E-02  1.81133E+01 -1.00000E+00  1.74618E-01
       1    -1     0     0   501     0  0.000000000E+00  0.000000000E+00  5.178961924E+02  5.178961924E+02  0.000000000E+00  0.00000E+00  9.000E+00
      -1    -1     0     0     0   502  0.000000000E+00  0.000000000E+00 -1.796911339E+01  1.796911339E+01  0.000000000E+00  0.00000E+00  9.000E+00
      23     2     1     2     0     0  1.986565268E+00 -4.073116758E+01  1.667459996E+02  1.943770927E+02  9.118800000E+01  0.00000E+00  9.000E+00
     -13     1     3     3     0     0  2.045538255E+01 -5.341700403E+01  5.148316784E+01  7.695665493E+01  1.057000000E-01  0.00000E+00  9.000E+00
      13     1     3     3     0     0 -1.846881728E+01  1.268583645E+01  1.152628317E+02  1.174204378E+02  1.057000000E-01  0.00000E+00  9.000E+00
       2     1     1     2   501     0 -1.634089094E+01  4.593669858E+01  1.748532437E+02  1.815240224E+02  3.300000000E-01  0.00000E+00  9.000E+00
      -2     1     1     2     0   512  1.251711177E+01 -6.577390753E+00  6.135127351E+01  6.296052587E+01  3.300000000E-01  0.00000E+00  9.000E+00
      21     1     1     2   512   502  1.837213902E+00  1.371859761E+00  9.697656222E+01  9.700366475E+01  1.348699152E-06  0.00000E+00  9.000E+00
</event>
<event>
      8  10001  1.28019E-02  2.94149E+01 -1.00000E+00  1.57373E-01
       4    -1     0     0   501     0  0.000000000E+00  0.000000000E+00  6.768722008E+02  6.768722008E+02  0.000000000E+00  0.00000E+00  9.000E+00
      -4    -1     0     0     0   502  0.000000000E+00  0.000000000E+00 -7.624815349E+01  7.624815349E+01  0.000000000E+00  0.00000E+00  9.000E+00
      23     2     1     2     0     0 -7.520552095E+00 -1.560004473E+02  4.960473494E+02  5.279876158E+02  9.118800000E+01  0.00000E+00  9.000E+00
     -13     1     3     3     0     0 -2.351033746E+01 -9.286223751E+01  1.667094940E+02  1.922711567E+02  1.057000000E-01  0.00000E+00  9.000E+00
      13     1     3     3     0     0  1.598978537E+01 -6.313820977E+01  3.293378554E+02  3.357164591E+02  1.057000000E-01  0.00000E+00  9.000E+00
       4     1     1     2   501     0 -2.074457008E+01  1.652656918E+02  8.501100870E+01  1.870085765E+02  1.500000000E+00  0.00000E+00  9.000E+00
      -4     1     1     2     0   511  1.523249503E+00  7.095532949E-01 -1.451074085E+00  2.679434815E+00  1.500000000E+00  0.00000E+00  9.000E+00
      21     1     1     2   511   502  2.674187268E+01 -9.974797816E+00  2.101676325E+01  3.544472715E+01  5.331201500E-07  0.00000E+00  9.000E+00
</event>
<event>
      8  10001  1.36110E-02  1.44570E+02 -1.00000E+00  1.19157E-01
      -4    -1     0     0     0   501  0.000000000E+00  0.000000000E+00  3.331056371E+01  3.331056371E+01  0.000000000E+00  0.00000E+00  9.000E+00
       2    -1     0     0   502     0  0.000000000E+00  0.000000000E+00 -3.244590690E+03  3.244590690E+03  0.000000000E+00  0.00000E+00  9.000E+00
      23     2     1     2     0     0  6.119516746E+01  8.111705142E+01 -1.310703522E+02  1.892604373E+02  9.118800000E+01  0.00000E+00  9.000E+00
     -13     1     3     3     0     0  4.052648654E+01  1.003256874E+02 -1.008179636E+02  1.478915570E+02  1.057000000E-01  0.00000E+00  9.000E+00
      13     1     3     3     0     0  2.066868092E+01 -1.920863602E+01 -3.025238854E+01  4.136888026E+01  1.057000000E-01  0.00000E+00  9.000E+00
      -3     1     1     2     0   512  4.493166371E+01 -4.875145242E+00 -1.225948243E+03  1.226781140E+03  5.000000000E-01  0.00000E+00  9.000E+00
       1     1     1     2   502     0 -2.949180760E+01 -1.067506762E+01 -1.148497682E+03  1.148925915E+03  3.300000000E-01  0.00000E+00  9.000E+00
      21     1     1     2   512   501 -7.663502358E+01 -6.556683856E+01 -7.057638499E+02  7.129337620E+02  1.868812365E-05  0.00000E+00  9.000E+00
</event>
<event>
      8  10001  1.06723E-02  6.52172E+02 -1.00000E+00  9.70857E-02
       1    -1     0     0   501     0  0.000000000E+00  0.000000000E+00  7.197267533E+02  7.197267533E+02  0.000000000E+00  0.00000E+00  9.000E+00
      -3    -1     0     0     0   502  0.000000000E+00  0.000000000E+00 -2.335447569E+02  2.335447569E+02  0.000000000E+00  0.00000E+00  9.000E+00
      23     2     1     2     0     0  2.880335018E+01 -5.239711013E+01  1.929723778E+02  2.216499043E+02  9.118800000E+01  0.00000E+00  9.000E+00
     -13     1     3     3     0     0  3.622554745E+01  9.732687770E+00  3.331441506E+01  5.016848535E+01  1.057000000E-01  0.00000E+00  9.000E+00
      13     1     3     3     0     0 -7.422197276E+00 -6.212979790E+01  1.596579627E+02  1.714814189E+02  1.057000000E-01  0.00000E+00  9.000E+00
       2     1     1     2   511     0  8.393917684E+01 -5.573344803E+01  3.211445435E+02  3.365797518E+02  3.300000000E-01  0.00000E+00  9.000E+00
      -4     1     1     2     0   502 -8.964574243E+01  8.809452321E+01  1.606582690E+02  2.039861112E+02  1.500000000E+00  0.00000E+00  9.000E+00
      21     1     1     2   501   511 -2.309678458E+01  2.003603495E+01 -1.885931938E+02  1.910557429E+02  6.031565972E-06  0.00000E+00  9.000E+00
</event>
<event>
      8  10001  1.19687E-02  3.20203E+02 -1.00000E+00  1.06370E-01
       2    -1     0     0   501     0  0.000000000E+00  0.000000000E+00  2.233183822E+03  2.233183822E+03  0.000000000E+00  0.00000E+00  9.000E+00
       1    -1     0     0   502     0  0.000000000E+00  0.000000000E+00 -2.419555756E+01  2.419555756E+01  0.000000000E+00  0.00000E+00  9.000E+00
      23     2     1     2     0     0 -2.992254914E+01  2.432163035E+01  4.027079723E+02  4.146997262E+02  9.118800000E+01  0.00000E+00  9.000E+00
     -13     1     3     3     0     0  2.279936119E+01  3.085813061E+01  9.527124041E+01  1.027066479E+02  1.057000000E-01  0.00000E+00  9.000E+00
      13     1     3     3     0     0 -5.272191033E+01 -6.536500260E+00  3.074367319E+02  3.119930783E+02  1.057000000E-01  0.00000E+00  9.000E+00
       1     1     1     2   501     0  4.111070879E+01 -3.019685737E+01  1.176377797E+02  1.282212802E+02  3.300000000E-01  0.00000E+00  9.000E+00
       2     1     1     2   511     0 -1.508974454E+01  1.262664323E+02  3.892680418E+02  4.095126733E+02  3.300000000E-01  0.00000E+00  9.000E+00
      21     1     1     2   502   511  3.901584881E+00 -1.203912052E+02  1.299374471E+03  1.304945700E+03  3.051757813E-05  0.00000E+00  9.000E+00
</event>
<event>
      8  10001  1.15693E-02  1.04789E+02 -1.00000E+00  1.25273E-01
       2    -1     0     0   501     0  0.000000000E+00  0.000000000E+00  4.255243634E+03  4.255243634E+03  0.000000000E+00  0.00000E+00  9.000E+00
      -2    -1     0     0     0   502  0.000000000E+00  0.000000000E+00 -3.126963269E+01  3.126963269E+01  0.000000000E+00  0.00000E+00  9.000E+00
      23     2     1     2     0     0  1.082090525E+02 -7.203493176E+01  2.087073384E+02  2.622446088E+02  9.118800000E+01  0.00000E+00  9.000E+00
     -13     1     3     3     0     0  1.042293069E+02 -8.484389732E+01  1.473359361E+02  1.994244834E+02  1.057000000E-01  0.00000E+00  9.000E+00
      13     1     3     3     0     0  3.979745577E+00  1.280896557E+01  6.137140227E+01  6.282012546E+01  1.057000000E-01  0.00000E+00  9.000E+00
       1     1     1     2   501     0 -1.255927454E+02  1.104497102E+02  2.114487375E+03  2.121091616E+03  3.300000000E-01  0.00000E+00  9.000E+00
      -1     1     1     2     0   512  3.519182994E+01 -4.253016002E+01  6.725433487E+02  6.748051158E+02  3.300000000E-01  0.00000E+00  9.000E+00
      21     1     1     2   512   502 -1.780813703E+01  4.115381598E+00  1.228235940E+03  1.228371926E+03  1.525878906E-05  0.00000E+00  9.000E+00
</event>
<event>
      8  10001  1.07221E-02  2.22879E+02 -1.00000E+00  1.11831E-01
       4    -1     0     0   501     0  0.000000000E+00  0.000000000E+00  8.176196355E+02  8.176196355E+02  0.000000000E+00  0.00000E+00  9.000E+00
       3    -1     0     0   502     0  0.000000000E+00  0.000000000E+00 -9.157304379E+01  9.157304379E+01  0.000000000E+00  0.00000E+00  9.000E+00
      23     2     1     2     0     0 -1.105608959E+01  2.522708195E+00  1.094931869E+02  1.429426825E+02  9.118800000E+01  0.00000E+00  9.000E+00
     -13     1     3     3     0     0 -2.046880556E+01 -3.378088752E+01  1.674985259E+01  4.290325275E+01  1.057000000E-01  0.00000E+00  9.000E+00
      13     1     3     3     0     0  9.412715976E+00  3.630359571E+01  9.274333429E+01  1.000394298E+02  1.057000000E-01  0.00000E+00  9.000E+00
       3     1     1     2   511     0 -3.627180831E+00 -6.156985834E+01  8.974339577E+01  1.088950457E+02  5.000000000E-01  0.00000E+00  9.000E+00
       4     1     1     2   502     0  6.676441548E+01  1.118066186E+02  5.608547591E+02  5.757764479E+02  1.500000000E+00  0.00000E+00  9.000E+00
      21     1     1     2   501   511 -5.208114506E+01 -5.275946840E+01 -3.404475002E+01  8.157850318E+01  5.457650729E-06  0.00000E+00  9.000E+00
</event>
<event>
      8  10001  2.72652E-01  1.39169E+02 -1.00000E+00  1.19849E-01
       1    -1     0     0   501     0  0.000000000E+00  0.000000000E+00  2.254265032E+02  2.254265032E+02  0.000000000E+00  0.00000E+00  9.000E+00
      21    -1     0     0   502   511  0.000000000E+00  0.000000000E+00 -4.725753161E+02  4.725753161E+02  0.000000000E+00  0.00000E+00  9.000E+00
      23     2     1     2     0     0 -1.111259012E+01 -1.433772426E+02 -3.347000012E+02  3.755261183E+02  9.118800000E+01  0.00000E+00  9.000E+00
     -13     1     3     3     0     0 -4.921835942E+01 -5.371677834E+01 -1.419812680E+02  1.595826770E+02  1.057000000E-01  0.00000E+00  9.000E+00
      13     1     3     3     0     0  3.810576930E+01 -8.966046428E+01 -1.927187333E+02  2.159434413E+02  1.057000000E-01  0.00000E+00  9.000E+00
       1     1     1     2   501     0 -1.634290448E-01 -4.283247327E-01  1.022985157E+01  1.024543480E+01  3.300000000E-01  0.00000E+00  9.000E+00
       2     1     1     2   502     0  1.365821240E+02  8.325696339E+01  6.449986044E+01  1.724724310E+02  3.300000000E-01  0.00000E+00  9.000E+00
      -2     1     1     2     0   511 -1.253061048E+02  6.054860396E+01  1.282147628E+01  1.397578352E+02  3.300000000E-01  0.00000E+00  9.000E+00
</event>
<event>
      8  10001  1.10900E-02  3.27308E+02 -1.00000E+00  1.06057E-01
       1    -1     0     0   501     0  0.000000000E+00  0.000000000E+00  1.780518380E+02  1.780518380E+02  0.000000000E+00  0.00000E+00  9.000E+00
       2    -1     0     0   502     0  0.000000000E+00  0.000000000E+00 -4.843615549E+02  4.843615549E+02  0.000000000E+00  0.00000E+00  9.000E+00
      23     2     1     2     0     0  4.960086275E+01  2.276755269E+02 -4.110831758E+01  2.535774759E+02  9.118800000E+01  0.00000E+00  9.000E+00
     -13     1     3     3     0     0 -5.948734447E+00  4.095747326E+01 -4.172590542E+01  5.877043825E+01  1.057000000E-01  0.00000E+00  9.000E+00
      13     1     3     3     0     0  5.554959720E+01  1.867180537E+02  6.175878413E-01  1.948070376E+02  1.057000000E-01  0.00000E+00  9.000E+00
       2     1     1     2   511     0 -1.295748278E+01  1.109094428E+01  2.515757554E+01  3.039601803E+01  3.300000000E-01  0.00000E+00  9.000E+00
       1     1     1     2   502     0 -8.674365038E+00 -7.323002542E+01 -1.055948235E+02  1.287954071E+02  3.300000000E-01  0.00000E+00  9.000E+00
      21     1     1     2   501   511 -2.796901493E+01 -1.655364458E+02 -1.847641514E+02  2.496444919E+02  0.000000000E+00  0.00000E+00  9.000E+00
</event>
<event>
      8  10001  1.21518E-02  3.92016E+01 -1.00000E+00  1.48716E-01
       2    -1     0     0   501     0  0.000000000E+00  0.000000000E+00  3.552117500E+02  3.552117500E+02  0.000000000E+00  0.00000E+00  9.000E+00
       2    -1     0     0   502     0  0.000000000E+00  0.000000000E+00 -4.519127211E+01  4.519127211E+01  0.000000000E+00  0.00000E+00  9.000E+00
      23     2     1     2     0     0 -6.641314865E+01  3.072450012E+01  1.898203978E+02  2.229388615E+02  9.118800000E+01  0.00000E+00  9.000E+00
     -13     1     3     3     0     0 -6.427131445E+00 -2.266830029E+01  9.243998803E+00  2.531052238E+01  1.057000000E-01  0.00000E+00  9.000E+00
      13     1     3     3     0     0 -5.998601721E+01  5.339280041E+01  1.805763990E+02  1.976283391E+02  1.057000000E-01  0.00000E+00  9.000E+00
       2     1     1     2   501     0  7.902181910E+01 -2.416318584E+01  7.165561741E+01  1.093752433E+02  3.300000000E-01  0.00000E+00  9.000E+00
       2     1     1     2   511     0 -5.212360305E+00 -9.563690545E+00 -6.353374403E+00  1.261376800E+01  3.300000000E-01  0.00000E+00  9.000E+00
      21     1     1     2   502   511 -7.396310145E+00  3.002376268E+00  5.489783716E+01  5.547514931E+01  9.536743164E-07  0.00000E+00  9.000E+00
</event>
<event>
      8  10001  1.06025E-02  1.97455E+02 -1.00000E+00  1.13787E-01
      -2    -1     0     0     0   501  0.000000000E+00  0.000000000E+00  1.975716373E+02  1.975716373E+02  0.000000000E+00  0.00000E+00  9.000E+00
       2    -1     0     0   502     0  0.000000000E+00  0.000000000E+00 -5.964328483E+02  5.964328483E+02  0.000000000E+00  0.00000E+00  9.000E+00
      23     2     1     2     0     0 -1.135325718E+01 -6.297368794E+01  8.257568123E+01  1.386671421E+02  9.118800000E+01  0.00000E+00  9.000E+00
     -13     1     3     3     0     0  1.069221446E-02 -7.613256882E+01  2.755690365E+01  8.096642675E+01  1.057000000E-01  0.00000E+00  9.000E+00
      13     1     3     3     0     0 -1.136394939E+01  1.315888088E+01  5.501877758E+01  5.770071534E+01  1.057000000E-01  0.00000E+00  9.000E+00
      -1     1     1     2     0   512  7.421875121E+01 -1.030555347E+02  1.168134683E+01  1.275359911E+02  3.300000000E-01  0.00000E+00  9.000E+00
       1     1     1     2   502     0 -3.894335269E+01  1.388381232E+02 -3.207896032E+02  3.517082421E+02  3.300000000E-01  0.00000E+00  9.000E+00
      21     1     1     2   512   501 -2.392214134E+01  2.719109944E+01 -1.723286359E+02  1.760931103E+02  3.303624740E-06  0.00000E+00  9.000E+00
</event>
<event>
      8  10001  1.22441E-02  1.00348E+02 -1.00000E+00  1.26145E-01
       1    -1     0     0   501     0  0.000000000E+00  0.000000000E+00  1.468424377E+02  1.468424377E+02  0.000000000E+00  0.00000E+00  9.000E+00
       2    -1     0     0   502     0  0.000000000E+00  0.000000000E+00 -3.427861134E+02  3.427861134E+02  0.000000000E+00  0.00000E+00  9.000E+00
      23     2     1     2     0     0 -1.713642319E+01  8.290687771E+01  7.481805704E+01  1.451902214E+02  9.118800000E+01  0.00000E+00  9.000E+00
     -13     1     3     3     0     0  1.261458860E+01  5.623071698E+01  8.615668278E+01  1.036532997E+02  1.057000000E-01  0.00000E+00  9.000E+00
      13     1     3     3     0     0 -2.975101179E+01  2.667616074E+01 -1.133862574E+01  4.153692165E+01  1.057000000E-01  0.00000E+00  9.000E+00
       2     1     1     2   501     0  1.419632131E+01 -6.545077704E+01 -2.402838339E+02  2.494429183E+02  3.300000000E-01  0.00000E+00  9.000E+00
       1     1     1     2   511     0 -4.829389311E+00  3.002960443E+01  1.010222853E+01  3.205096044E+01  3.300000000E-01  0.00000E+00  9.000E+00
      21     1     1     2   502   511  7.769491194E+00 -4.748570511E+01 -4.058012737E+01  6.294445107E+01  8.259061849E-07  0.00000E+00  9.000E+00
</event>
<event>
      8  10001  1.17499E-02  6.80811E+01 -1.00000E+00  1.34554E-01
       1    -1     0     0   501     0  0.000000000E+00  0.000000000E+00  3.156813495E+03  3.156813495E+03  0.000000000E+00  0.00000E+00  9.000E+00
       4    -1     0     0   502     0  0.000000000E+00  0.000000000E+00 -8.472840175E+01  8.472840175E+01  0.000000000E+00  0.00000E+00  9.000E+00
      23     2     1     2     0     0  2.020355763E+02  3.613907119E-03  2.908711851E+03  2.917145567E+03  9.118800000E+01  0.00000E+00  9.000E+00
     -13     1     3     3     0     0  5.253616962E+01  1.109671008E+01  3.550493898E+02  3.590867116E+02  1.057000000E-01  0.00000E+00  9.000E+00
      13     1     3     3     0     0  1.494994067E+02 -1.109309617E+01  2.553662461E+03  2.558058855E+03  1.057000000E-01  0.00000E+00  9.000E+00
       2     1     1     2   512     0 -1.380306022E+01 -2.661404054E+00  1.236124341E+02  1.244096070E+02  3.300000000E-01  0.00000E+00  9.000E+00
       3     1     1     2   502     0 -1.857146747E+02  1.098647630E+01  4.256086365E+01  1.908463261E+02  5.000000000E-01  0.00000E+00  9.000E+00
      21     1     1     2   501   512 -2.517841339E+00 -8.328686158E+00 -2.800055780E+00  9.140396627E+00  1.457878924E-06  0.00000E+00  9.000E+00
</event>
<event>
      8  10001  1.07540E-02  1.15755E+03 -1.00000E+00  9.07167E-02
       2    -1     0     0   501     0  0.000000000E+00  0.000000000E+00  5.653102349E+02  5.653102349E+02  0.000000000E+00  0.00000E+00  9.000E+00
       2    -1     0     0   502     0  0.000000000E+00  0.000000000E+00 -8.973495514E+02  8.973495514E+02  0.000000000E+00  0.00000E+00  9.000E+00
      23     2     1     2     0     0 -1.211293205E+01  5.259130480E+00 -6.176106723E+01  1.109236780E+02  9.118800000E+01  0.00000E+00  9.000E+00
     -13     1     3     3     0     0 -1.273430971E+01  1.923271114E+01 -8.263633436E+01  8.579530727E+01  1.057000000E-01  0.00000E+00  9.000E+00
      13     1     3     3     0     0  6.213776568E-01 -1.397358066E+01  2.087526712E+01  2.512837075E+01  1.057000000E-01  0.00000E+00  9.000E+00
       2     1     1     2   501     0  5.553118803E+01 -1.135848426E+02  4.890443197E+02  5.051234353E+02  3.300000000E-01  0.00000E+00  9.000E+00
       2     1     1     2   511     0 -3.555405051E+01  1.944901303E+01  3.115317031E+01  5.111735063E+01  3.300000000E-01  0.00000E+00  9.000E+00
      21     1     1     2   502   511 -7.864205473E+00  8.887669905E+01 -7.904757393E+02  7.954953223E+02  2.157918644E-05  0.00000E+00  9.000E+00
</event>
<event>
      8  10001  1.05259E-02  1.06516E+03 -1.00000E+00  9.15869E-02
       2    -1     0     0   501     0  0.000000000E+00  0.000000000E+00  2.089837435E+03  2.089837435E+03  0.000000000E+00  0.00000E+00  9.000E+00
       1    -1     0     0   502     0  0.000000000E+00  0.000000000E+00 -5.640443816E+02  5.640443816E+02  0.000000000E+00  0.00000E+00  9.000E+00
      23     2     1     2     0     0  2.669500457E+02 -3.284521624E+01 -2.362349437E+02  3.694094410E+02  9.118800000E+01  0.00000E+00  9.000E+00
     -13     1     3     3     0     0  1.863494220E+01  1.345439611E+01 -5.172804927E+01  5.660462966E+01  1.057000000E-01  0.00000E+00  9.000E+00
      13     1     3     3     0     0  2.483151035E+02 -4.629961235E+01 -1.845068945E+02  3.128048114E+02  1.057000000E-01  0.00000E+00  9.000E+00
       1     1     1     2   512     0  4.103179072E+01  2.071196401E+02  1.031698554E+03  1.053083173E+03  3.300000000E-01  0.00000E+00  9.000E+00
       2     1     1     2   502     0 -1.090066249E+02  2.829625721E+02  6.619094806E+02  7.280621752E+02  3.300000000E-01  0.00000E+00  9.000E+00
      21     1     1     2   501   512 -1.989752116E+02 -4.572369960E+02  6.841996215E+01  5.033270274E+02  1.191138839E-05  0.00000E+00  9.000E+00
</event>
<event>
      8  10001  1.17399E-02  1.71103E+02 -1.00000E+00  1.16192E-01
       1    -1     0     0   501     0  0.000000000E+00  0.000000000E+00  4.290742113E+02  4.290742113E+02  0.000000000E+00  0.00000E+00  9.000E+00
       2    -1     0     0   502     0  0.000000000E+00  0.000000000E+00 -6.792843287E+01  6.792843287E+01  0.000000000E+00  0.00000E+00  9.000E+00
      23     2     1     2     0     0  9.585817854E+00 -4.198861654E+01  9.840157895E+01  1.409008655E+02  9.118800000E+01  0.00000E+00  9.000E+00
     -13     1     3     3     0     0  4.226867078E+01 -5.128587229E+01  5.898987757E+01  8.886336734E+01  1.057000000E-01  0.00000E+00  9.000E+00
      13     1     3     3     0     0 -3.268285293E+01  9.297255746E+00  3.941170139E+01  5.203749820E+01  1.057000000E-01  0.00000E+00  9.000E+00
       2     1     1     2   501     0 -6.583419551E-01 -2.440265618E+01  3.879527647E+01  4.583781647E+01  3.300000000E-01  0.00000E+00  9.000E+00
       1     1     1     2   511     0 -3.373607231E+00  9.098756235E+01  6.418147782E+00  9.127660844E+01  3.300000000E-01  0.00000E+00  9.000E+00
      21     1     1     2   502   511 -5.553868668E+00 -2.459628963E+01  2.175307752E+02  2.189873537E+02  0.000000000E+00  0.00000E+00  9.000E+00
</event>
<event>
      8  10001  1.06724E-02  8.01873E+02 -1.00000E+00  9.46897E-02
       1    -1     0     0   501     0  0.000000000E+00  0.000000000E+00  1.326529316E+03  1.326529316E+03  0.000000000E+00  0.00000E+00  9.000E+00
       2    -1     0     0   502     0  0.000000000E+00  0.000000000E+00 -2.846429439E+03  2.846429439E+03  0.000000000E+00  0.00000E+00  9.000E+00
      23     2     1     2     0     0  6.343186118E+01 -7.476521543E+01  1.286437268E+03  1.293386847E+03  9.118800000E+01  0.00000E+00  9.000E+00
     -13     1     3     3     0     0  6.741774548E+01 -7.901591006E+01  1.281629603E+03  1.285831683E+03  1.057000000E-01  0.00000E+00  9.000E+00
      13     1     3     3     0     0 -3.985884302E+00  4.250694630E+00  4.807665004E+00  7.555163386E+00  1.057000000E-01  0.00000E+00  9.000E+00
       2     1     1     2   512     0 -2.100690973E+02 -6.411109267E+01 -4.019306217E+02  4.580257541E+02  3.300000000E-01  0.00000E+00  9.000E+00
       1     1     1     2   502     0  6.848774886E+01  1.480810129E+02 -8.727227788E+02  8.878421682E+02  3.300000000E-01  0.00000E+00  9.000E+00
      21     1     1     2   501   512  7.814948726E+01 -9.204704823E+00 -1.531683991E+03  1.533703986E+03  8.074192233E-05  0.00000E+00  9.000E+00
</event>
<event>
      8  10001  1.17696E-02  2.12157E+02 -1.00000E+00  1.12619E-01
      -1    -1     0     0     0   501  0.000000000E+00  0.000000000E+00  2.573335771E+02  2.573335771E+02  0.000000000E+00  0.00000E+00  9.000E+00
       1    -1     0     0   502     0  0.000000000E+00  0.000000000E+00 -1.442316668E+02  1.442316668E+02  0.000000000E+00  0.00000E+00  9.000E+00
      23     2     1     2     0     0 -2.272223558E+01  2.474834114E+01  1.298717781E+02  1.622057659E+02  9.118800000E+01  0.00000E+00  9.000E+00
     -13     1     3     3     0     0 -2.129632534E+00 -2.490581770E+01  9.475522346E+01  9.799693176E+01  1.057000000E-01  0.00000E+00  9.000E+00
      13     1     3     3     0     0 -2.059260305E+01  4.965415885E+01  3.511655467E+01  6.420883409E+01  1.057000000E-01  0.00000E+00  9.000E+00
      -2     1     1     2     0   511 -4.835850599E+01 -5.174519212E+00  8.768158019E+01  1.002670891E+02  3.300000000E-01  0.00000E+00  9.000E+00
       2     1     1     2   502     0  4.055960366E+01 -2.782233305E+01 -2.855496735E+01  5.687406022E+01  3.300000000E-01  0.00000E+00  9.000E+00
      21     1     1     2   511   501  3.052113791E+01  8.248511117E+00 -7.589648067E+01  8.221832869E+01  2.132480600E-06  0.00000E+00  9.000E+00
</event>
<event>
      8  10001  1.78792E-02  2.04036E+01 -1.00000E+00  1.70031E-01
       4    -1     0     0   501     0  0.000000000E+00  0.000000000E+00  1.794736244E+01  1.794736244E+01  0.000000000E+00  0.00000E+00  9.000E+00
       1    -1     0     0   502     0  0.000000000E+00  0.000000000E+00 -5.107948606E+02  5.107948606E+02  0.000000000E+00  0.00000E+00  9.000E+00
      23     2     1     2     0     0  6.742110047E+01 -3.474663936E-01 -2.242512309E+02  2.512958245E+02  9.118800000E+01  0.00000E+00  9.000E+00
     -13     1     3     3     0     0  5.684815655E+01 -2.630738146E+01 -6.761603582E+01  9.217228811E+01  1.057000000E-01  0.00000E+00  9.000E+00
      13     1     3     3     0     0  1.057294392E+01  2.595991507E+01 -1.566351951E+02  1.591235364E+02  1.057000000E-01  0.00000E+00  9.000E+00
       4     1     1     2   501     0 -4.902324172E+01  1.865989261E+00 -1.898185883E+02  1.960614868E+02  1.500000000E+00  0.00000E+00  9.000E+00
       1     1     1     2   511     0 -5.290613973E-01 -1.378390604E+00 -1.721279302E+01  1.727914958E+01  3.300000000E-01  0.00000E+00  9.000E+00
      21     1     1     2   502   511 -1.786879736E+01 -1.401322634E-01 -6.156488594E+01  6.410576212E+01  1.348699152E-06  0.00000E+00  9.000E+00
</event>
<event>
      8  10001  1.18043E-02  9.27961E+01 -1.00000E+00  1.27754E-01
      -1    -1     0     0     0   501  0.000000000E+00  0.000000000E+00  3.240769468E+02  3.240769468E+02  0.000000000E+00  0.00000E+00  9.000E+00
       1    -1     0     0   502     0  0.000000000E+00  0.000000000E+00 -1.443075337E+02  1.443075337E+02  0.000000000E+00  0.00000E+00  9.000E+00
      23     2     1     2     0     0 -1.117997487E+02  4.062066345E+01  2.180206086E+02  2.645703295E+02  9.118800000E+01  0.00000E+00  9.000E+00
     -13     1     3     3     0     0 -1.091365908E+02  2.104222186E+01  1.159988610E+02  1.606527855E+02  1.057000000E-01  0.00000E+00  9.000E+00
      13     1     3     3     0     0 -2.663157850E+00  1.957844160E+01  1.020217476E+02  1.039175440E+02  1.057000000E-01  0.00000E+00  9.000E+00
      -1     1     1     2     0   512  2.026312488E+01  3.535922540E+01 -4.335804665E+01  5.950544648E+01  3.300000000E-01  0.00000E+00  9.000E+00
       1     1     1     2   502     0  2.892126748E+01 -3.714010523E+01  4.092936569E+01  6.237907505E+01  3.300000000E-01  0.00000E+00  9.000E+00
      21     1     1     2   512   501  6.261535632E+01 -3.883978363E+01 -3.582251455E+01  8.192962949E+01  3.162979880E-06  0.00000E+00  9.000E+00
</event>
<event>
      8  10001  1.07740E-02  2.29251E+02 -1.00000E+00  1.11386E-01
      -3    -1     0     0     0   501  0.000000000E+00  0.000000000E+00  5.041458068E+02  5.041458068E+02  0.000000000E+00  0.00000E+00  9.000E+00
       1    -1     0     0   502     0  0.000000000E+00  0.000000000E+00 -1.523300971E+02  1.523300971E+02  0.000000000E+00  0.00000E+00  9.000E+00
      23     2     1     2     0     0 -2.254106410E+02 -4.098286207E+01  2.656083169E+02  3.624259668E+02  9.118800000E+01  0.00000E+00  9.000E+00
     -13     1     3     3     0     0 -1.015978645E+02 -3.910397762E+01  6.533706014E+01  1.269653091E+02  1.057000000E-01  0.00000E+00  9.000E+00
      13     1     3     3     0     0 -1.238127765E+02 -1.878884448E+00  2.002712568E+02  2.354606576E+02  1.057000000E-01  0.00000E+00  9.000E+00
      -4     1     1     2     0   511 -1.047936393E+01 -2.525010960E+01  3.363510563E+01  4.336998310E+01  1.500000000E+00  0.00000E+00  9.000E+00
       2     1     1     2   502     0  1.239812473E+02  3.686877612E+01  3.053424825E+01  1.329026168E+02  3.300000000E-01  0.00000E+00  9.000E+00
      21     1     1     2   511   501  1.119087576E+02  2.936419555E+01  2.203803892E+01  1.177773372E+02  6.585706385E-06  0.00000E+00  9.000E+00
</event>
<event>
      8  10001  1.11250E-02  3.58705E+02 -1.00000E+00  1.04769E-01
       2    -1     0     0   501     0  0.000000000E+00  0.000000000E+00  6.256304656E+02  6.256304656E+02  0.000000000E+00  0.00000E+00  9.000E+00
      -2    -1     0     0     0   502  0.000000000E+00  0.000000000E+00 -1.030557480E+02  1.030557480E+02  0.000000000E+00  0.00000E+00  9.000E+00
      23     2     1     2     0     0  2.351518602E+01 -9.024919411E+01  3.431573071E+02  3.671104327E+02  9.118800000E+01  0.00000E+00  9.000E+00
     -13     1     3     3     0     0  4.936620679E+01 -9.124822544E+01  2.898391204E+02  3.078473452E+02  1.057000000E-01  0.00000E+00  9.000E+00
      13     1     3     3     0     0 -2.585102076E+01  9.990313386E-01  5.331818670E+01  5.926308753E+01  1.057000000E-01  0.00000E+00  9.000E+00
       1     1     1     2   511     0  2.670052883E+01  1.961523040E+01  1.013237103E+02  1.066033709E+02  3.300000000E-01  0.00000E+00  9.000E+00
      -1     1     1     2     0   502 -6.657435811E+01  1.046038844E+01  1.471984831E+02  1.618921468E+02  3.300000000E-01  0.00000E+00  9.000E+00
      21     1     1     2   501   511  1.635864326E+01  6.017357527E+01 -6.910478296E+01  9.308026320E+01  8.148196931E-06  0.00000E+00  9.000E+00
</event>
<event>
      8  10001  1.71457E-02  2.84205E+01 -1.00000E+00  1.58480E-01
       4    -1     0     0   501     0  0.000000000E+00  0.000000000E+00  1.822787694E+01  1.822787694E+01  0.000000000E+00  0.00000E+00  9.000E+00
      -4    -1     0     0     0   502  0.000000000E+00  0.000000000E+00 -1.351944524E+03  1.351944524E+03  0.000000000E+00  0.00000E+00  9.000E+00
      23     2     1     2     0     0 -5.685091990E+01  2.377256302E+01 -1.263393747E+03  1.268178289E+03  9.118800000E+01  0.00000E+00  9.000E+00
     -13     1     3     3     0     0 -2.852514248E+01 -8.604777089E-01 -9.529436642E+01  9.947588461E+01  1.057000000E-01  0.00000E+00  9.000E+00
      13     1     3     3     0     0 -2.832577742E+01  2.463304073E+01 -1.168099381E+03  1.168702405E+03  1.057000000E-01  0.00000E+00  9.000E+00
       4     1     1     2   511     0  9.089809556E+00  1.102983200E+00  1.183901687E+00  9.353760362E+00  1.500000000E+00  0.00000E+00  9.000E+00
      -4     1     1     2     0   502  1.810670196E+01 -1.302942936E+01 -1.267449723E+01  2.570041955E+01  1.500000000E+00  0.00000E+00  9.000E+00
      21     1     1     2   501   511  2.965440839E+01 -1.184611687E+01 -5.883230467E+01  6.693993199E+01  2.431401974E-06  0.00000E+00  9.000E+00
</event>
<event>
      8  10001  2.50138E-02  4.74494E+01 -1.00000E+00  1.43483E-01
       2    -1     0     0   501     0  0.000000000E+00  0.000000000E+00  1.102958824E+03  1.102958824E+03  0.000000000E+00  0.00000E+00  9.000E+00
      -4    -1     0     0     0   502  0.000000000E+00  0.000000000E+00 -8.858985525E+00  8.858985525E+00  0.000000000E+00  0.00000E+00  9.000E+00
      23     2     1     2     0     0  2.908676601E+01  5.859055859E+01  8.599903223E+02  8.672816724E+02  9.118800000E+01  0.00000E+00  9.000E+00
     -13     1     3     3     0     0 -2.165126604E+01  5.353043928E+01  3.479518646E+02  3.527106413E+02  1.057000000E-01  0.00000E+00  9.000E+00
      13     1     3     3     0     0  5.073803205E+01  5.060119313E+00  5.120384577E+02  5.145710311E+02  1.057000000E-01  0.00000E+00  9.000E+00
       2     1     1     2   501     0  2.669162126E+00 -1.397804028E+01  3.946446446E+01  4.195310348E+01  3.300000000E-01  0.00000E+00  9.000E+00
      -4     1     1     2     0   511 -5.507242910E-01 -7.374654566E-01  2.645560316E+00  3.177442671E+00  1.500000000E+00  0.00000E+00  9.000E+00
      21     1     1     2   511   502 -3.120520384E+01 -4.387505286E+01  1.919994916E+02  1.994055911E+02  0.000000000E+00  0.00000E+00  9.000E+00
</event>
<event>
      8  10001  1.25609E-02  6.33302E+01 -1.00000E+00  1.36250E-01
       1    -1     0     0   501     0  0.000000000E+00  0.000000000E+00  1.037688955E+02  1.037688955E+02  0.000000000E+00  0.00000E+00  9.000E+00
       2    -1     0     0   502     0  0.000000000E+00  0.000000000E+00 -8.020094019E+02  8.020094019E+02  0.000000000E+00  0.00000E+00  9.000E+00
      23     2     1     2     0     0 -1.028296508E+02  1.084105483E+02 -1.955215782E+01  1.761372257E+02  9.118800000E+01  0.00000E+00  9.000E+00
     -13     1     3     3     0     0 -1.253918519E-01 -1.369149945E+01  5.257375569E+00  1.466710778E+01  1.057000000E-01  0.00000E+00  9.000E+00
      13     1     3     3     0     0 -1.027042589E+02  1.221020477E+02 -2.480953339E+01  1.614701179E+02  1.057000000E-01  0.00000E+00  9.000E+00
       1     1     1     2   512     0 -2.778572438E+01  7.807867071E+00 -4.345526464E+01  5.216778884E+01  3.300000000E-01  0.00000E+00  9.000E+00
       2     1     1     2   502     0  1.087404477E+02 -1.209102265E+02 -6.345873023E+02  6.550915363E+02  3.300000000E-01  0.00000E+00  9.000E+00
      21     1     1     2   501   512  2.187492749E+01  4.691811187E+00 -6.457816980E-01  2.238174656E+01  1.587690580E-06  0.00000E+00  9.000E+00
</event>
<event>
      8  10001  1.10334E-02  8.62647E+01 -1.00000E+00  1.29292E-01
       2    -1     0     0   501     0  0.000000000E+00  0.000000000E+00  1.373522087E+02  1.373522087E+02  0.000000000E+00  0.00000E+00  9.000E+00
       1    -1     0     0   502     0  0.000000000E+00  0.000000000E+00 -8.919846132E+02  8.919846132E+02  0.000000000E+00  0.00000E+00  9.000E+00
      23     2     1     2     0     0  5.771578122E+01 -1.993291405E+02 -7.512393931E+02  7.846904452E+02  9.118800000E+01  0.00000E+00  9.000E+00
     -13     1     3     3     0     0 -4.028017701E+00 -1.105828810E+02 -4.823615209E+02  4.948913482E+02  1.057000000E-01  0.00000E+00  9.000E+00
      13     1     3     3     0     0  6.174379892E+01 -8.874625949E+01 -2.688778722E+02  2.897990970E+02  1.057000000E-01  0.00000E+00  9.000E+00
       1     1     1     2   501     0 -3.855584683E+01  1.469401167E+02  3.556808789E+01  1.560229118E+02  3.300000000E-01  0.00000E+00  9.000E+00
       2     1     1     2   511     0 -9.292576253E+00  2.088917573E+01 -4.904104890E+01  5.410954642E+01  3.300000000E-01  0.00000E+00  9.000E+00
      21     1     1     2   502   511 -9.867358137E+00  3.149984807E+01  1.007994961E+01  3.451391849E+01  1.025477084E-06  0.00000E+00  9.000E+00
</event>
<event>
      8  10001  1.63289E-02  6.61346E+01 -1.00000E+00  1.35229E-01
       2    -1     0     0   501     0  0.000000000E+00  0.000000000E+00  2.270982142E+01  2.270982142E+01  0.000000000E+00  0.00000E+00  9.000E+00
      -2    -1     0     0     0   502  0.000000000E+00  0.000000000E+00 -4.317645071E+02  4.317645071E+02  0.000000000E+00  0.00000E+00  9.000E+00
      23     2     1     2     0     0 -1.447185923E+01  2.802075442E+01 -2.220658295E+02  2.421220382E+02  9.118800000E+01  0.00000E+00  9.000E+00
     -13     1     3     3     0     0 -3.604983797E+01  4.579761114E+01 -9.068745029E+01  1.078018405E+02  1.057000000E-01  0.00000E+00  9.000E+00
      13     1     3     3     0     0  2.157797873E+01 -1.777685672E+01 -1.313783793E+02  1.343201977E+02  1.057000000E-01  0.00000E+00  9.000E+00
       1     1     1     2   501     0 -2.943507805E+00 -2.164216583E+01 -2.144352529E+01  3.061014957E+01  3.300000000E-01  0.00000E+00  9.000E+00
      -1     1     1     2     0   512  1.768767259E+01  4.220645754E+00 -1.694649504E+02  1.704381000E+02  3.300000000E-01  0.00000E+00  9.000E+00
      21     1     1     2   512   502 -2.723055536E-01 -1.059923434E+01  3.919619586E+00  1.130404072E+01  9.499417216E-07  0.00000E+00  9.000E+00
</event>
<event>
      8  10001  1.05286E-02  8.25709E+02 -1.00000E+00  9.43598E-02
       2    -1     0     0   501     0  0.000000000E+00  0.000000000E+00  5.847748122E+02  5.847748122E+02  0.000000000E+00  0.00000E+00  9.000E+00
      -1    -1     0     0     0   502  0.000000000E+00  0.000000000E+00 -1.731232456E+03  1.731232456E+03  0.000000000E+00  0.00000E+00  9.000E+00
      23     2     1     2     0     0 -2.551084919E+02 -1.783223765E+02  3.277863869E+02  4.611272919E+02  9.118800000E+01  0.00000E+00  9.000E+00
     -13     1     3     3     0     0 -4.016032896E+01 -7.639742035E+01  9.326182982E+01  1.270716252E+02  1.057000000E-01  0.00000E+00  9.000E+00
      13     1     3     3     0     0 -2.149481629E+02 -1.019249561E+02  2.345245571E+02  3.340556667E+02  1.057000000E-01  0.00000E+00  9.000E+00
       2     1     1     2   511     0 -8.824099332E+01 -9.830230000E+01  8.130001822E+01  1.551116274E+02  3.300000000E-01  0.00000E+00  9.000E+00
      -1     1     1     2     0   502  2.741398453E+02  3.952872048E+02 -8.132526669E+02  9.448728159E+02  3.300000000E-01  0.00000E+00  9.000E+00
      21     1     1     2   501   511  6.920963992E+01 -1.186625283E+02 -7.422913822E+02  7.548955331E+02  1.078959322E-05  0.00000E+00  9.000E+00
</event>
<event>
      8  10001  1.61995E-02  7.12588E+01 -1.00000E+00  1.33506E-01
       1    -1     0     0   501     0  0.000000000E+00  0.000000000E+00  6.951494108E+02  6.951494108E+02  0.000000000E+00  0.00000E+00  9.000E+00
      -1    -1     0     0     0   502  0.000000000E+00  0.000000000E+00 -2.052968493E+01  2.052968493E+01  0.000000000E+00  0.00000E+00  9.000E+00
      23     2     1     2     0     0 -5.003597808E+01 -1.436998564E+00  2.089857281E+02  2.334436762E+02  9.118800000E+01  0.00000E+00  9.000E+00
     -13     1     3     3     0     0 -8.111615692E-01 -2.760104483E+01  1.462632193E+01  3.124765791E+01  1.057000000E-01  0.00000E+00  9.000E+00
      13     1     3     3     0     0 -4.922481651E+01  2.616404627E+01  1.943594062E+02  2.021960183E+02  1.057000000E-01  0.00000E+00  9.000E+00
       2     1     1     2   501     0  2.721624924E+01  9.954668357E+00  3.406263923E+01  4.472350541E+01  3.300000000E-01  0.00000E+00  9.000E+00
      -2     1     1     2     0   511  1.590791161E+01 -3.619014528E+01  1.777653945E+02  1.821082992E+02  3.300000000E-01  0.00000E+00  9.000E+00
      21     1     1     2   511   502  6.911817231E+00  2.767247548E+01  2.538059641E+02  2.554036149E+02  7.629394531E-06  0.00000E+00  9.000E+00
</event>
<event>
      8  10001  1.05966E-02  1.37139E+02 -1.00000E+00  1.20118E-01
       1    -1     0     0   501     0  0.000000000E+00  0.000000000E+00  5.608704302E+02  5.608704302E+02  0.000000000E+00  0.00000E+00  9.000E+00
       2    -1     0     0   502     0  0.000000000E+00  0.000000000E+00 -6.107345695E+02  6.107345695E+02  0.000000000E+00  0.00000E+00  9.000E+00
      23     2     1     2     0     0 -2.447523362E+01  4.297417926E+02  2.889644285E+02  5.263959894E+02  9.118800000E+01  0.00000E+00  9.000E+00
     -13     1     3     3     0     0  3.003804323E+01  1.074484539E+02  9.329322829E+01  1.454341497E+02  1.057000000E-01  0.00000E+00  9.000E+00
      13     1     3     3     0     0 -5.451327685E+01  3.222933387E+02  1.956712002E+02  3.809618397E+02  1.057000000E-01  0.00000E+00  9.000E+00
       2     1     1     2   501     0 -5.766049445E+01 -3.396943334E+02 -2.938229425E+02  4.528233687E+02  3.300000000E-01  0.00000E+00  9.000E+00
       1     1     1     2   512     0  5.848427444E+01 -1.141269296E+01 -8.278209613E+01  1.019982561E+02  3.300000000E-01  0.00000E+00  9.000E+00
      21     1     1     2   502   512  2.365145363E+01 -7.863476618E+01  3.777647074E+01  9.038738547E+01  1.261592536E-06  0.00000E+00  9.000E+00
</event>
<event>
      8  10001  1.05225E-02  3.39192E+02 -1.00000E+00  1.05551E-01
       3    -1     0     0   501     0  0.000000000E+00  0.000000000E+00  3.761603600E+02  3.761603600E+02  0.000000000E+00  0.00000E+00  9.000E+00
       2    -1     0     0   502     0  0.000000000E+00  0.000000000E+00 -2.065741275E+03  2.065741275E+03  0.000000000E+00  0.00000E+00  9.000E+00
      23     2     1     2     0     0 -2.499503352E+02 -2.570258979E+02  3.236524371E+01  3.713492192E+02  9.118800000E+01  0.00000E+00  9.000E+00
     -13     1     3     3     0     0 -2.425279927E+02 -2.307012466E+02  5.052287629E+01  3.385195188E+02  1.057000000E-01  0.00000E+00  9.000E+00
      13     1     3     3     0     0 -7.422342534E+00 -2.632465132E+01 -1.815763258E+01  3.282970041E+01  1.057000000E-01  0.00000E+00  9.000E+00
       3     1     1     2   511     0 -2.285063833E+02 -1.464936258E+02 -9.391998322E+01  2.872224971E+02  5.000000000E-01  0.00000E+00  9.000E+00
       2     1     1     2   502     0  5.033847056E+02  3.570804768E+02 -1.174792313E+03  1.327041717E+03  3.300000000E-01  0.00000E+00  9.000E+00
      21     1     1     2   501   511 -2.492798716E+01  4.643904695E+01 -4.532338622E+02  4.562882022E+02  5.394796609E-06  0.00000E+00  9.000E+00
</event>
<event>
      8  10001  2.47410E-01  7.68963E+01 -1.00000E+00  1.31794E-01
      -4    -1     0     0     0   501  0.000000000E+00  0.000000000E+00  6.330019670E+01  6.330019670E+01  0.000000000E+00  0.00000E+00  9.000E+00
       2    -1     0     0   502     0  0.000000000E+00  0.000000000E+00 -5.742616320E+02  5.742616320E+02  0.000000000E+00  0.00000E+00  9.000E+00
      23     2     1     2     0     0 -3.228541977E+01 -6.990157768E+00 -2.836486060E+02  2.997715691E+02  9.118800000E+01  0.00000E+00  9.000E+00
     -13     1     3     3     0     0  2.804325578E+01  1.142173304E+01 -1.338970517E+02  1.372782278E+02  1.057000000E-01  0.00000E+00  9.000E+00
      13     1     3     3     0     0 -6.032867555E+01 -1.841189081E+01 -1.497515542E+02  1.624933414E+02  1.057000000E-01  0.00000E+00  9.000E+00
      -4     1     1     2     0   501 -7.161314446E-01  5.276955062E+00  5.365450292E+01  5.393899131E+01  1.500000000E+00  0.00000E+00  9.000E+00
       2     1     1     2   511     0  5.850899015E+00 -4.149787731E+00 -1.738742154E+01  1.881183365E+01  3.300000000E-01  0.00000E+00  9.000E+00
      21     1     1     2   502   511  2.715065220E+01  5.862990437E+00 -2.635799108E+02  2.650394347E+02  5.394796609E-06  0.00000E+00  9.000E+00
</event>
<event>
      8  10001  1.88770E-02  1.41830E+02 -1.00000E+00  1.19504E-01
       4    -1     0     0   501     0  0.000000000E+00  0.000000000E+00  1.627991080E+02  1.627991080E+02  0.000000000E+00  0.00000E+00  9.000E+00
       1    -1     0     0   502     0  0.000000000E+00  0.000000000E+00 -3.741174142E+02  3.741174142E+02  0.000000000E+00  0.00000E+00  9.000E+00
      23     2     1     2     0     0  1.634276124E+01  1.307718270E+01 -2.642018398E+02  2.802783653E+02  9.118800000E+01  0.00000E+00  9.000E+00
     -13     1     3     3     0     0  1.407011786E+01  2.949679006E+01 -2.670635088E+01  4.220508488E+01  1.057000000E-01  0.00000E+00  9.000E+00
      13     1     3     3     0     0  2.272643378E+00 -1.641960735E+01 -2.374954889E+02  2.380732804E+02  1.057000000E-01  0.00000E+00  9.000E+00
       4     1     1     2   501     0  2.904090649E+00  8.729687066E-01  1.327775017E+02  1.328205962E+02  1.500000000E+00  0.00000E+00  9.000E+00
       1     1     1     2   512     0  1.301573489E+01  8.562978666E+00  1.466653449E+01  2.139976851E+01  3.300000000E-01  0.00000E+00  9.000E+00
      21     1     1     2   502   512 -3.226258678E+01 -2.251313008E+01 -9.456050255E+01  1.024177923E+02  1.907348633E-06  0.00000E+00  9.000E+00
</event>
<event>
      8  10001  1.07838E-02  1.25682E+02 -1.00000E+00  1.21741E-01
       2    -1     0     0   501     0  0.000000000E+00  0.000000000E+00  2.733664263E+01  2.733664263E+01  0.000000000E+00  0.00000E+00  9.000E+00
       2    -1     0     0   502     0  0.000000000E+00  0.000000000E+00 -2.474222305E+03  2.474222305E+03  0.000000000E+00  0.00000E+00  9.000E+00
      23     2     1     2     0     0  1.879042497E+01 -1.190898378E+01 -1.747406131E+03  1.749925239E+03  9.118800000E+01  0.00000E+00  9.000E+00
     -13     1     3     3     0     0 -1.980392804E+01  2.246066996E+01 -1.118010439E+03  1.118411386E+03  1.057000000E-01  0.00000E+00  9.000E+00
      13     1     3     3     0     0  3.859435301E+01 -3.436965375E+01 -6.293956919E+02  6.315138521E+02  1.057000000E-01  0.00000E+00  9.000E+00
       2     1     1     2   501     0 -9.864491703E+01 -2.027801815E+01 -1.571381962E+02  1.866401331E+02  3.300000000E-01  0.00000E+00  9.000E+00
       2     1     1     2   511     0  8.025546815E+01  2.127225649E+01 -5.468940332E+02  5.531605929E+02  3.300000000E-01  0.00000E+00  9.000E+00
      21     1     1     2   502   511 -4.009760925E-01  1.091474543E+01  4.552697119E+00  1.183298359E+01  2.276710183E-06  0.00000E+00  9.000E+00
</event>
<event>
      8  10001  1.26689E-02  1.93028E+02 -1.00000E+00  1.14161E-01
       2    -1     0     0   501     0  0.000000000E+00  0.000000000E+00  1.183669134E+02  1.183669134E+02  0.000000000E+00  0.00000E+00  9.000E+00
       1    -1     0     0   502     0  0.000000000E+00  0.000000000E+00 -4.662098500E+02  4.662098500E+02  0.000000000E+00  0.00000E+00  9.000E+00
      23     2     1     2     0     0  5.637296832E+00  4.839133646E+01 -2.338462532E+02  2.556810945E+02  9.118800000E+01  0.00000E+00  9.000E+00
     -13     1     3     3     0     0 -1.314729455E+01  7.131949103E+01 -1.826938826E+02  1.965614079E+02  1.057000000E-01  0.00000E+00  9.000E+00
      13     1     3     3     0     0  1.878459138E+01 -2.292815457E+01 -5.115237063E+01  5.911968656E+01  1.057000000E-01  0.00000E+00  9.000E+00
       2     1     1     2   501     0  2.512116302E+01 -3.514686369E+01  8.967705626E+01  9.954123858E+01  3.300000000E-01  0.00000E+00  9.000E+00
       1     1     1     2   512     0 -1.464192136E+01 -1.202567481E+01  5.362434524E+00  1.969434741E+01  3.300000000E-01  0.00000E+00  9.000E+00
      21     1     1     2   502   512 -1.611653850E+01 -1.218797955E+00 -2.090361742E+02  2.096600830E+02  7.136645101E-06  0.00000E+00  9.000E+00
</event>
<event>
      8  10001  1.14113E-02  8.41563E+01 -1.00000E+00  1.29822E-01
      -2    -1     0     0     0   501  0.000000000E+00  0.000000000E+00  3.298846701E+02  3.298846701E+02  0.000000000E+00  0.00000E+00  9.000E+00
      -3    -1     0     0     0   502  0.000000000E+00  0.000000000E+00 -1.213022048E+02  1.213022048E+02  0.000000000E+00  0.00000E+00  9.000E+00
      23     2     1     2     0     0 -6.375132373E+01  1.473844326E+02  1.448765072E+01  1.852337593E+02  9.118800000E+01  0.00000E+00  9.000E+00
     -13     1     3     3     0     0 -8.054655234E+01  7.400589758E+01  7.777106424E+00  1.096590832E+02  1.057000000E-01  0.00000E+00  9.000E+00
      13     1     3     3     0     0  1.679522861E+01  7.337853497E+01  6.710544292E+00  7.557467615E+01  1.057000000E-01  0.00000E+00  9.000E+00
      -1     1     1     2     0   511 -1.083280638E+01  3.156724078E+00  5.607311378E+00  1.260418350E+01  3.300000000E-01  0.00000E+00  9.000E+00
      -4     1     1     2     0   502  6.095182379E+01 -1.070683486E+02  1.461214404E+02  1.911347207E+02  1.500000000E+00  0.00000E+00  9.000E+00
      21     1     1     2   511   501  1.363230631E+01 -4.347280800E+01  4.236606281E+01  6.221421131E+01  1.966049969E-06  0.00000E+00  9.000E+00
</event>
<event>
      8  10001  1.09337E-02  9.17518E+01 -1.00000E+00  1.27990E-01
       1    -1     0     0   501     0  0.000000000E+00  0.000000000E+00  1.019382605E+03  1.019382605E+03  0.000000000E+00  0.00000E+00  9.000E+00
       2    -1     0     0   502     0  0.000000000E+00  0.000000000E+00 -1.255087054E+02  1.255087054E+02  0.000000000E+00  0.00000E+00  9.000E+00
      23     2     1     2     0     0  8.888020115E+01  1.058199368E+02 -3.642741721E+01  1.695280426E+02  9.118800000E+01  0.00000E+00  9.000E+00
     -13     1     3     3     0     0  1.707836010E+01  6.206041676E+01 -5.353362164E+01  8.371992314E+01  1.057000000E-01  0.00000E+00  9.000E+00
      13     1     3     3     0     0  7.180184106E+01  4.375952001E+01  1.710620443E+01  8.580811951E+01  1.057000000E-01  0.00000E+00  9.000E+00
       2     1     1     2   511     0  2.001646855E+01  3.085602356E+01  3.935099545E+01  5.386430122E+01  3.300000000E-01  0.00000E+00  9.000E+00
       1     1     1     2   502     0 -5.992476682E+01 -1.270393065E+02  8.341149303E+02  8.458592016E+02  3.300000000E-01  0.00000E+00  9.000E+00
      21     1     1     2   501   511 -4.897190288E+01 -9.636653811E+00  5.683539084E+01  7.563976481E+01  2.939421655E-06  0.00000E+00  9.000E+00
</event>
<event>
      8  10001  1.11808E-02  9.80222E+01 -1.00000E+00  1.26623E-01
      -1    -1     0     0     0   501  0.000000000E+00  0.000000000E+00  1.227199922E+02  1.227199922E+02  0.000000000E+00  0.00000E+00  9.000E+00
      -3    -1     0     0     0   502  0.000000000E+00  0.000000000E+00 -3.035231694E+02  3.035231694E+02  0.000000000E+00  0.00000E+00  9.000E+00
      23     2     1     2     0     0  1.358355593E+02  1.071493173E+02 -9.572576809E+01  2.177405552E+02  9.118800000E+01  0.00000E+00  9.000E+00
     -13     1     3     3     0     0  8.293628903E+01  5.714173811E+01 -1.036408451E+02  1.445165811E+02  1.057000000E-01  0.00000E+00  9.000E+00
      13     1     3     3     0     0  5.289927023E+01  5.000757922E+01  7.915076972E+00  7.322397412E+01  1.057000000E-01  0.00000E+00  9.000E+00
      -1     1     1     2     0   511  2.104642376E+00  5.906862999E+00  5.331082688E+00  8.237104627E+00  3.300000000E-01  0.00000E+00  9.000E+00
      -3     1     1     2     0   502 -9.494251048E+01 -7.871708641E+01 -5.676078497E+01  1.357663312E+02  5.000000000E-01  0.00000E+00  9.000E+00
      21     1     1     2   511   501 -4.299769116E+01 -3.433909392E+01 -3.364770692E+01  6.449917052E+01  8.259061849E-07  0.00000E+00  9.000E+00
</event>
<event>
      8  10001  1.08651E-02  1.19250E+02 -1.00000E+00  1.22741E-01
      -4    -1     0     0     0   501  0.000000000E+00  0.000000000E+00  4.270348745E+02  4.270348745E+02  0.000000000E+00  0.00000E+00  9.000E+00
       2    -1     0     0   502     0  0.000000000E+00  0.000000000E+00 -4.978046629E+02  4.978046629E+02  0.000000000E+00  0.00000E+00  9.000E+00
      23     2     1     2     0     0  7.276898055E+01  1.628116851E+02 -4.036898386E+02  4.506480960E+02  9.118800000E+01  0.00000E+00  9.000E+00
     -13     1     3     3     0     0  7.558226932E+01  6.251780770E+01 -2.303548641E+02  2.503687886E+02  1.057000000E-01  0.00000E+00  9.000E+00
      13     1     3     3     0     0 -2.813288772E+00  1.002938774E+02 -1.733349745E+02  2.002793075E+02  1.057000000E-01  0.00000E+00  9.000E+00
      -3     1     1     2     0   501 -7.395816749E+01 -1.118383671E+02  3.382368856E+02  3.638434714E+02  5.000000000E-01  0.00000E+00  9.000E+00
       1     1     1     2   511     0  7.529879943E+00 -4.650376826E+00 -4.692896834E+01  4.775732474E+01  3.300000000E-01  0.00000E+00  9.000E+00
      21     1     1     2   502   511 -6.340693006E+00 -4.632294114E+01  4.161213296E+01  6.259064525E+01  9.536743164E-07  0.00000E+00  9.000E+00
</event>
<event>
      8  10001  1.05399E-02  6.97158E+02 -1.00000E+00  9.62989E-02
      -4    -1     0     0     0   501  0.000000000E+00  0.000000000E+00  3.327622256E+02  3.327622256E+02  0.000000000E+00  0.00000E+00  9.000E+00
       2    -1     0     0   502     0  0.000000000E+00  0.000000000E+00 -1.353514683E+03  1.353514683E+03  0.000000000E+00  0.00000E+00  9.000E+00
      23     2     1     2     0     0  1.201699582E+01  8.666948057E+01 -7.872644617E+02  7.973434587E+02  9.118800000E+01  0.00000E+00  9.000E+00
     -13     1     3     3     0     0  1.288826931E+01  4.318713018E+01 -1.126887073E+02  1.213671769E+02  1.057000000E-01  0.00000E+00  9.000E+00
      13     1     3     3     0     0 -8.712734939E-01  4.348235039E+01 -6.745757544E+02  6.759762818E+02  1.057000000E-01  0.00000E+00  9.000E+00
      -3     1     1     2     0   501 -3.557240144E+01 -2.443816695E+02  5.981122347E+01  2.540972817E+02  5.000000000E-01  0.00000E+00  9.000E+00
       1     1     1     2   512     0  1.060703458E+01  1.435865052E+01 -4.335208723E+02  4.338883908E+02  3.300000000E-01  0.00000E+00  9.000E+00
      21     1     1     2   502   512  1.294837104E+01  1.433535384E+02  1.402216531E+02  2.009477775E+02  1.907348633E-06  0.00000E+00  9.000E+00
</event>
<event>
      8  10001  1.08194E-01  7.12024E+01 -1.00000E+00  1.33524E-01
       2    -1     0     0   501     0  0.000000000E+00  0.000000000E+00  3.006466423E+02  3.006466423E+02  0.000000000E+00  0.00000E+00  9.000E+00
      -4    -1     0     0     0   502  0.000000000E+00  0.000000000E+00 -1.127764735E+02  1.127764735E+02  0.000000000E+00  0.00000E+00  9.000E+00
      23     2     1     2     0     0 -5.722926374E+01 -1.124001657E+01  2.786313972E+02  2.989184395E+02  9.118800000E+01  0.00000E+00  9.000E+00
     -13     1     3     3     0     0 -2.098191296E+00  6.238912827E+00 -5.734607080E+00  8.730597393E+00  1.057000000E-01  0.00000E+00  9.000E+00
      13     1     3     3     0     0 -5.513107245E+01 -1.747892939E+01  2.843660043E+02  2.901878421E+02  1.057000000E-01  0.00000E+00  9.000E+00
       1     1     1     2   511     0  8.716405993E+00 -1.645633769E+00 -6.482812255E-01  8.900169239E+00  3.300000000E-01  0.00000E+00  9.000E+00
      -3     1     1     2     0   502  6.444573020E+00  2.846907093E+00 -3.417294807E+01  3.489524009E+01  5.000000000E-01  0.00000E+00  9.000E+00
      21     1     1     2   501   511  4.206828473E+01  1.003874324E+01 -5.593999914E+01  7.070926707E+01  3.015782986E-06  0.00000E+00  9.000E+00
</event>
<event>
      8  10001  6.08571E-02  5.58515E+01 -1.00000E+00  1.39304E-01
       1    -1     0     0   501     0  0.000000000E+00  0.000000000E+00  5.571546537E+01  5.571546537E+01  0.000000000E+00  0.00000E+00  9.000E+00
       2    -1     0     0   502     0  0.000000000E+00  0.000000000E+00 -4.514242289E+02  4.514242289E+02  0.000000000E+00  0.00000E+00  9.000E+00
      23     2     1     2     0     0 -6.144301334E+00  2.477485821E+01 -3.613458684E+00  9.476209403E+01  9.118800000E+01  0.00000E+00  9.000E+00
     -13     1     3     3     0     0  4.084610667E+01  9.809242919E+00 -1.416177540E+01  4.433049438E+01  1.057000000E-01  0.00000E+00  9.000E+00
      13     1     3     3     0     0 -4.699040801E+01  1.496561529E+01  1.054831672E+01  5.043159965E+01  1.057000000E-01  0.00000E+00  9.000E+00
       1     1     1     2   511     0  6.096021010E+00 -7.024292753E+00 -1.105311180E+02  1.109222210E+02  3.300000000E-01  0.00000E+00  9.000E+00
       2     1     1     2   502     0 -1.693198802E+00 -7.209969198E+00 -2.885793487E+02  2.886745572E+02  3.300000000E-01  0.00000E+00  9.000E+00
      21     1     1     2   501   511  1.741479127E+00 -1.054059626E+01  7.015161792E+00  1.278082212E+01  1.155776944E-06  0.00000E+00  9.000E+00
</event>
<event>
      8  10001  1.07861E-02  1.78985E+02 -1.00000E+00  1.15425E-01
       1    -1     0     0   501     0  0.000000000E+00  0.000000000E+00  1.323677779E+03  1.323677779E+03  0.000000000E+00  0.00000E+00  9.000E+00
      -3    -1     0     0     0   502  0.000000000E+00  0.000000000E+00 -5.136961761E+01  5.136961761E+01  0.000000000E+00  0.00000E+00  9.000E+00
      23     2     1     2     0     0 -2.217426107E+00  5.014795474E+00  2.828246100E+01  9.563061276E+01  9.118800000E+01  0.00000E+00  9.000E+00
     -13     1     3     3     0     0  1.853211003E+01  3.366432626E+01 -1.364037422E+01  4.077740730E+01  1.057000000E-01  0.00000E+00  9.000E+00
      13     1     3     3     0     0 -2.074953613E+01 -2.864953078E+01  4.192283522E+01  5.485320546E+01  1.057000000E-01  0.00000E+00  9.000E+00
       2     1     1     2   501     0 -7.403447040E+01 -1.426154415E+01  6.891780327E+02  6.932899567E+02  3.300000000E-01  0.00000E+00  9.000E+00
      -4     1     1     2     0   511  5.818706813E+01  3.949987626E+01  6.744724574E+01  9.745437948E+01  1.500000000E+00  0.00000E+00  9.000E+00
      21     1     1     2   511   502  1.806482838E+01 -3.025312759E+01  4.874004216E+02  4.886724473E+02  5.394796609E-06  0.00000E+00  9.000E+00
</event>
<event>
      8  10001  1.05563E-02  2.67545E+02 -1.00000E+00  1.09009E-01
       2    -1     0     0   501     0  0.000000000E+00  0.000000000E+00  2.437578151E+03  2.437578151E+03  0.000000000E+00  0.00000E+00  9.000E+00
       3    -1     0     0   502     0  0.000000000E+00  0.000000000E+00 -1.525773205E+02  1.525773205E+02  0.000000000E+00  0.00000E+00  9.000E+00
      23     2     1     2     0     0  2.022480283E+02  1.029526391E+02  4.434639727E+01  2.485666211E+02  9.118800000E+01  0.00000E+00  9.000E+00
     -13     1     3     3     0     0 -3.478862444E+00  3.488152030E+00  1.785952851E+01  1.852683512E+01  1.057000000E-01  0.00000E+00  9.000E+00
      13     1     3     3     0     0  2.057268907E+02  9.946448703E+01  2.648686877E+01  2.300397860E+02  1.057000000E-01  0.00000E+00  9.000E+00
       1     1     1     2   501     0 -2.377051005E+02 -1.429275764E+02  1.721853196E+03  1.744050041E+03  3.300000000E-01  0.00000E+00  9.000E+00
       4     1     1     2   512     0 -9.342483602E-01  7.116983758E+01 -5.170510148E+00  7.137928815E+01  1.500000000E+00  0.00000E+00  9.000E+00
      21     1     1     2   502   512  3.639132059E+01 -3.119490029E+01  5.239717474E+02  5.261595215E+02  7.629394531E-06  0.00000E+00  9.000E+00
</event>
<event>
      8  10001  1.15699E-01  2.34981E+01 -1.00000E+00  1.64903E-01
       2    -1     0     0   501     0  0.000000000E+00  0.000000000E+00  1.091104006E+03  1.091104006E+03  0.000000000E+00  0.00000E+00  9.000E+00
       3    -1     0     0   502     0  0.000000000E+00  0.000000000E+00 -6.356881781E+01  6.356881781E+01  0.000000000E+00  0.00000E+00  9.000E+00
      23     2     1     2     0     0 -1.689190806E+01 -3.147978482E+00 -2.339406938E+01  9.569629122E+01  9.118800000E+01  0.00000E+00  9.000E+00
     -13     1     3     3     0     0 -6.163450758E+00 -1.744950397E+01  3.228732380E+01  3.721499381E+01  1.057000000E-01  0.00000E+00  9.000E+00
      13     1     3     3     0     0 -1.072845730E+01  1.430152548E+01 -5.568139318E+01  5.848129740E+01  1.057000000E-01  0.00000E+00  9.000E+00
       1     1     1     2   511     0 -7.542213540E-01  2.850923529E+00  8.145015768E+00  8.668725205E+00  3.300000000E-01  0.00000E+00  9.000E+00
       4     1     1     2   502     0  1.418755879E+01 -3.827749121E+00  1.044541035E+03  1.044645472E+03  1.500000000E+00  0.00000E+00  9.000E+00
      21     1     1     2   501   511  3.458570625E+00  4.124804074E+00 -1.756793186E+00  5.662335359E+00  2.477628937E-06  0.00000E+00  9.000E+00
</event>
<event>
      8  10001  1.28665E-02  5.51128E+01 -1.00000E+00  1.39636E-01
      -2    -1     0     0     0   501  0.000000000E+00  0.000000000E+00  7.867543584E+01  7.867543584E+01  0.000000000E+00  0.00000E+00  9.000E+00
       2    -1     0     0   502     0  0.000000000E+00  0.000000000E+00 -1.895337044E+02  1.895337044E+02  0.000000000E+00  0.00000E+00  9.000E+00
      23     2     1     2     0     0  5.603943512E+01 -7.235971704E+01 -8.302533618E+01  1.535734506E+02  9.118800000E+01  0.00000E+00  9.000E+00
     -13     1     3     3     0     0  6.405821804E+00  2.133882126E+01 -7.959790440E+00  2.365902115E+01  1.057000000E-01  0.00000E+00  9.000E+00
      13     1     3     3     0     0  4.963361332E+01 -9.369853830E+01 -7.506554574E+01  1.299144295E+02  1.057000000E-01  0.00000E+00  9.000E+00
      -2     1     1     2     0   501 -4.249276167E+01  5.741836825E+01 -1.943089596E+01  7.402818669E+01  3.300000000E-01  0.00000E+00  9.000E+00
       2     1     1     2   511     0  1.437283738E+00  1.467898093E-02 -1.751553914E+01  1.757751437E+01  3.300000000E-01  0.00000E+00  9.000E+00
      21     1     1     2   502   511 -1.498395719E+01  1.492666981E+01  9.113502679E+00  2.302998862E+01  6.848052319E-07  0.00000E+00  9.000E+00
</event>
<event>
      8  10001  1.05381E-02  1.24348E+03 -1.00000E+00  8.99808E-02
       2    -1     0     0   501     0  0.000000000E+00  0.000000000E+00  5.142599124E+03  5.142599124E+03  0.000000000E+00  0.00000E+00  9.000E+00
      -4    -1     0     0     0   502  0.000000000E+00  0.000000000E+00 -1.818364462E+02  1.818364462E+02  0.000000000E+00  0.00000E+00  9.000E+00
      23     2     1     2     0     0 -1.325215974E+02  1.693530233E+02  3.876918845E+03  3.883948687E+03  9.118800000E+01  0.00000E+00  9.000E+00
     -13     1     3     3     0     0 -8.956677321E+00  6.451780735E+01  1.566814396E+03  1.568167763E+03  1.057000000E-01  0.00000E+00  9.000E+00
      13     1     3     3     0     0 -1.235649201E+02  1.048352159E+02  2.310104449E+03  2.315780924E+03  1.057000000E-01  0.00000E+00  9.000E+00
       2     1     1     2   512     0  3.438142795E+01  4.138879715E+01  5.414751875E+02  5.441420795E+02  3.300000000E-01  0.00000E+00  9.000E+00
      -4     1     1     2     0   502  1.974478600E+02  2.056367899E+02  2.006619369E+02  3.486253142E+02  1.500000000E+00  0.00000E+00  9.000E+00
      21     1     1     2   501   512 -9.930769054E+01 -4.163786103E+02  3.417067077E+02  5.477194889E+02  1.907348633E-05  0.00000E+00  9.000E+00
</event>
<event>
      8  10001  1.55841E-02  1.08852E+02 -1.00000E+00  1.24517E-01
      -1    -1     0     0     0   501  0.000000000E+00  0.000000000E+00  2.087902386E+02  2.087902386E+02  0.000000000E+00  0.00000E+00  9.000E+00
       2    -1     0     0   502     0  0.000000000E+00  0.000000000E+00 -8.348959570E+01  8.348959570E+01  0.000000000E+00  0.00000E+00  9.000E+00
      23     2     1     2     0     0 -1.343225177E+01  4.332687651E+01 -4.088196953E-01  1.018482307E+02  9.118800000E+01  0.00000E+00  9.000E+00
     -13     1     3     3     0     0  2.375501546E+01 -4.957166261E+00 -2.616367587E+01  3.568505800E+01  1.057000000E-01  0.00000E+00  9.000E+00
      13     1     3     3     0     0 -3.718726723E+01  4.828404277E+01  2.575485618E+01  6.616317268E+01  1.057000000E-01  0.00000E+00  9.000E+00
      -1     1     1     2     0   511 -8.927899222E+00 -3.634429306E+00  1.864351337E+01  2.099061580E+01  3.300000000E-01  0.00000E+00  9.000E+00
       2     1     1     2   502     0 -1.492167629E+01 -1.750691632E+01  1.215465455E+02  1.237045681E+02  3.300000000E-01  0.00000E+00  9.000E+00
      21     1     1     2   511   501  3.728182729E+01 -2.218553089E+01 -1.448059622E+01  4.573641977E+01  1.327458468E-06  0.00000E+00  9.000E+00
</event>
<event>
      8  10001  1.09821E-02  3.17483E+02 -1.00000E+00  1.06492E-01
       1    -1     0     0   501     0  0.000000000E+00  0.000000000E+00  9.713966357E+02  9.713966357E+02  0.000000000E+00  0.00000E+00  9.000E+00
      -3    -1     0     0     0   502  0.000000000E+00  0.000000000E+00 -1.437504031E+02  1.437504031E+02  0.000000000E+00  0.00000E+00  9.000E+00
      23     2     1     2     0     0  1.245750252E+02  1.676409198E+02  5.590797087E+01  2.346558490E+02  9.118800000E+01  0.00000E+00  9.000E+00
     -13     1     3     3     0     0  1.009937428E+02  6.176088687E+01  1.796367731E+01  1.197365780E+02  1.057000000E-01  0.00000E+00  9.000E+00
      13     1     3     3     0     0  2.358128241E+01  1.058800329E+02  3.794429356E+01  1.149192710E+02  1.057000000E-01  0.00000E+00  9.000E+00
       2     1     1     2   501     0 -9.119133113E+01 -1.849099536E+02  3.479072708E+02  4.044096040E+02  3.300000000E-01  0.00000E+00  9.000E+00
      -4     1     1     2     0   511  6.649057916E+01  2.172748840E+01  4.249978621E+01  8.186307286E+01  1.500000000E+00  0.00000E+00  9.000E+00
      21     1     1     2   511   502 -9.987427324E+01 -4.458454588E+00  3.813312047E+02  3.942185130E+02  1.789251617E-05  0.00000E+00  9.000E+00
</event>
<event>
      8  10001  1.08424E-02  1.79352E+02 -1.00000E+00  1.15390E-01
       1    -1     0     0   501     0  0.000000000E+00  0.000000000E+00  3.937802962E+02  3.937802962E+02  0.000000000E+00  0.00000E+00  9.000E+00
       4    -1     0     0   502     0  0.000000000E+00  0.000000000E+00 -1.518689442E+02  1.518689442E+02  0.000000000E+00  0.00000E+00  9.000E+00
      23     2     1     2     0     0 -1.596577968E+02  9.822038389E+01  5.544637363E+01  2.157021270E+02  9.118800000E+01  0.00000E+00  9.000E+00
     -13     1     3     3     0     0 -2.619380426E+01 -1.353161303E+01 -7.798431934E+00  3.049666615E+01  1.057000000E-01  0.00000E+00  9.000E+00
      13     1     3     3     0     0 -1.334639925E+02  1.117519969E+02  6.324480556E+01  1.852054608E+02  1.057000000E-01  0.00000E+00  9.000E+00
       2     1     1     2   501     0  1.054003486E+02 -6.951787645E+01  1.230218914E+02  1.762851760E+02  3.300000000E-01  0.00000E+00  9.000E+00
       3     1     1     2   512     0 -3.031541392E+01 -6.750033339E-01 -1.600223268E+01  3.428996065E+01  5.000000000E-01  0.00000E+00  9.000E+00
      21     1     1     2   502   512  8.457286209E+01 -2.802750411E+01  7.944531974E+01  1.193719767E+02  2.336015456E-06  0.00000E+00  9.000E+00
</event>
<event>
      8  10001  1.26819E-02  8.96616E+01 -1.00000E+00  1.28473E-01
       2    -1     0     0   501     0  0.000000000E+00  0.000000000E+00  9.975333675E+02  9.975333675E+02  0.000000000E+00  0.00000E+00  9.000E+00
      -1    -1     0     0     0   502  0.000000000E+00  0.000000000E+00 -1.524922980E+01  1.524922980E+01  0.000000000E+00  0.00000E+00  9.000E+00
      23     2     1     2     0     0  7.797894810E+01  3.297179181E+01  5.382993690E+02  5.524937262E+02  9.118800000E+01  0.00000E+00  9.000E+00
     -13     1     3     3     0     0  3.003406735E+01  2.976833381E+01  7.033228546E+01  8.206607368E+01  1.057000000E-01  0.00000E+00  9.000E+00
      13     1     3     3     0     0  4.794488075E+01  3.203457996E+00  4.679670836E+02  4.704276525E+02  1.057000000E-01  0.00000E+00  9.000E+00
       2     1     1     2   501     0 -2.991727380E+01 -2.710703135E+01  9.514754813E+01  1.033585954E+02  3.300000000E-01  0.00000E+00  9.000E+00
      -1     1     1     2     0   511 -6.018323585E+00  2.888890010E+00  1.374604115E+00  6.823806910E+00  3.300000000E-01  0.00000E+00  9.000E+00
      21     1     1     2   511   502 -4.204335072E+01 -8.753650470E+00  3.474626164E+02  3.501064689E+02  7.629394531E-06  0.00000E+00  9.000E+00
</event>
<event>
      8  10001  1.12556E-02  1.35536E+02 -1.00000E+00  1.20334E-01
      21    -1     0     0   501   512  0.000000000E+00  0.000000000E+00  6.516226186E+01  6.516226186E+01  0.000000000E+00  0.00000E+00  9.000E+00
       1    -1     0     0   502     0  0.000000000E+00  0.000000000E+00 -1.727933412E+03  1.727933412E+03  0.000000000E+00  0.00000E+00  9.000E+00
      23     2     1     2     0     0  8.007450432E+01  6.635804842E+01 -2.320196659E+02  2.701179253E+02  9.118800000E+01  0.00000E+00  9.000E+00
     -13     1     3     3     0     0  5.710512937E+01  8.491903308E+01 -1.395730554E+02  1.730690237E+02  1.057000000E-01  0.00000E+00  9.000E+00
      13     1     3     3     0     0  2.296937495E+01 -1.856098466E+01 -9.244661051E+01  9.704890161E+01  1.057000000E-01  0.00000E+00  9.000E+00
       2     1     1     2   501     0 -2.446700301E+02 -1.080630772E+02 -1.103201302E+03  1.135162664E+03  3.300000000E-01  0.00000E+00  9.000E+00
       1     1     1     2   502     0  2.935128441E+01  3.282116261E+01 -1.887436216E+02  1.938117391E+02  3.300000000E-01  0.00000E+00  9.000E+00
      -2     1     1     2     0   512  1.352442414E+02  8.883866126E+00 -1.388065609E+02  1.940033458E+02  3.300000000E-01  0.00000E+00  9.000E+00
</event>
<event>
      8  10001  2.05169E-02  4.29450E+01 -1.00000E+00  1.46168E-01
       2    -1     0     0   501     0  0.000000000E+00  0.000000000E+00  7.891789432E+02  7.891789432E+02  0.000000000E+00  0.00000E+00  9.000E+00
      -2    -1     0     0     0   502  0.000000000E+00  0.000000000E+00 -5.153465900E+01  5.153465900E+01  0.000000000E+00  0.00000E+00  9.000E+00
      23     2     1     2     0     0 -1.540715763E+01 -6.812823165E+00  4.126590713E-01  9.273196157E+01  9.118800000E+01  0.00000E+00  9.000E+00
     -13     1     3     3     0     0  6.414879030E+00 -1.584517209E+01  4.175513285E+01  4.511898097E+01  1.057000000E-01  0.00000E+00  9.000E+00
      13     1     3     3     0     0 -2.182203666E+01  9.032348921E+00 -4.134247378E+01  4.761298061E+01  1.057000000E-01  0.00000E+00  9.000E+00
       2     1     1     2   501     0  2.029604770E+01 -2.103697064E+00  6.988054745E+02  6.991033937E+02  3.300000000E-01  0.00000E+00  9.000E+00
      -2     1     1     2     0   511 -1.561310813E+00 -2.507801835E+00  3.674029348E+01  3.686034219E+01  3.300000000E-01  0.00000E+00  9.000E+00
      21     1     1     2   511   502 -3.327579260E+00  1.142432206E+01  1.685857161E+00  1.201790467E+01  1.235269414E-06  0.00000E+00  9.000E+00
</event>
<event>
      8  10001  2.21817E-02  7.53726E+01 -1.00000E+00  1.32239E-01
       1    -1     0     0   501     0  0.000000000E+00  0.000000000E+00  2.781163541E+02  2.781163541E+02  0.000000000E+00  0.00000E+00  9.000E+00
      -3    -1     0     0     0   502  0.000000000E+00  0.000000000E+00 -3.101132994E+02  3.101132994E+02  0.000000000E+00  0.00000E+00  9.000E+00
      23     2     1     2     0     0 -3.435007253E+01 -2.352341480E+01 -2.641630927E+02  2.825432169E+02  9.118800000E+01  0.00000E+00  9.000E+00
     -13     1     3     3     0     0 -5.328427171E+01  1.643034503E+01 -1.575286752E+02  1.671061475E+02  1.057000000E-01  0.00000E+00  9.000E+00
      13     1     3     3     0     0  1.893419918E+01 -3.995375983E+01 -1.066344175E+02  1.154370694E+02  1.057000000E-01  0.00000E+00  9.000E+00
       2     1     1     2   501     0  1.120541856E+01  1.601163221E+01  1.265672467E+02  1.280676017E+02  3.300000000E-01  0.00000E+00  9.000E+00
      -4     1     1     2     0   512  2.416530337E-01 -1.352757494E+01  1.344857703E+02  1.351729488E+02  1.500000000E+00  0.00000E+00  9.000E+00
      21     1     1     2   512   502  2.290300093E+01  2.103935754E+01 -2.888686949E+01  4.244588609E+01  0.000000000E+00  0.00000E+00  9.000E+00
</event>
<event>
      8  10001  1.07353E-02  1.20801E+02 -1.00000E+00  1.22493E-01
       3    -1     0     0   501     0  0.000000000E+00  0.000000000E+00  1.976235543E+02  1.976235543E+02  0.000000000E+00  0.00000E+00  9.000E+00
       2    -1     0     0   502     0  0.000000000E+00  0.000000000E+00 -1.212476515E+03  1.212476515E+03  0.000000000E+00  0.00000E+00  9.000E+00
      23     2     1     2     0     0  1.430183460E+01 -4.499667343E+02 -5.070508502E+02  6.841713385E+02  9.118800000E+01  0.00000E+00  9.000E+00
     -13     1     3     3     0     0  3.294470611E+01 -4.240326325E+02 -4.528413786E+02  6.212522454E+02  1.057000000E-01  0.00000E+00  9.000E+00
      13     1     3     3     0     0 -1.864287150E+01 -2.593410175E+01 -5.420947165E+01  6.291909313E+01  1.057000000E-01  0.00000E+00  9.000E+00
       4     1     1     2   501     0  1.490465360E+01  4.042686928E+02 -4.252066773E+02  5.869056935E+02  1.500000000E+00  0.00000E+00  9.000E+00
       1     1     1     2   511     0 -3.796318238E+01 -2.173079370E+01 -2.965034508E+01  5.284583687E+01  3.300000000E-01  0.00000E+00  9.000E+00
      21     1     1     2   502   511  8.756694177E+00  6.742883521E+01 -5.294508789E+01  8.617720025E+01  1.784161275E-06  0.00000E+00  9.000E+00
</event>
<event>
      8  10001  2.91452E-01  1.98131E+01 -1.00000E+00  1.71139E-01
       2    -1     0     0   501     0  0.000000000E+00  0.000000000E+00  3.484084291E+01  3.484084291E+01  0.000000000E+00  0.00000E+00  9.000E+00
      -2    -1     0     0     0   502  0.000000000E+00  0.000000000E+00 -9.437477831E+01  9.437477831E+01  0.000000000E+00  0.00000E+00  9.000E+00
      23     2     1     2     0     0 -1.090147418E+01 -8.179900301E+00 -3.960493336E+01  1.003471723E+02  9.118800000E+01  0.00000E+00  9.000E+00
     -13     1     3     3     0     0 -2.341968453E+01  1.824530111E+01 -5.845176950E+01  6.555908150E+01  1.057000000E-01  0.00000E+00  9.000E+00
      13     1     3     3     0     0  1.251821035E+01 -2.642520141E+01  1.884683615E+01  3.478809085E+01  1.057000000E-01  0.00000E+00  9.000E+00
       2     1     1     2   512     0  6.983082609E-01 -3.754880904E-01  1.920330456E+00  2.103614697E+00  3.300000000E-01  0.00000E+00  9.000E+00
      -2     1     1     2     0   502  2.000568741E+00  6.441801244E+00 -7.421630232E+00  1.003436963E+01  3.300000000E-01  0.00000E+00  9.000E+00
      21     1     1     2   501   512  8.202597175E+00  2.113587147E+00 -1.442770227E+01  1.673046454E+01  2.920019320E-07  0.00000E+00  9.000E+00
</event>
<event>
      8  10001  1.10722E-02  5.38854E+02 -1.00000E+00  9.94111E-02
      -1    -1     0     0     0   501  0.000000000E+00  0.000000000E+00  3.011846385E+02  3.011846385E+02  0.000000000E+00  0.00000E+00  9.000E+00
       1    -1     0     0   502     0  0.000000000E+00  0.000000000E+00 -9.634273374E+02  9.634273374E+02  0.000000000E+00  0.00000E+00  9.000E+00
      23     2     1     2     0     0  1.695103543E+02 -1.362257595E+02 -3.423583783E+02  4.157111116E+02  9.118800000E+01  0.00000E+00  9.000E+00
     -13     1     3     3     0     0  1.352858698E+02 -8.660367395E+01 -3.052220331E+02  3.449100804E+02  1.057000000E-01  0.00000E+00  9.000E+00
      13     1     3     3     0     0  3.422448443E+01 -4.962208552E+01 -3.713634525E+01  7.080103118E+01  1.057000000E-01  0.00000E+00  9.000E+00
      -2     1     1     2     0   511 -1.877965037E+02  1.076051272E+02  1.925125761E+02  2.896680705E+02  3.300000000E-01  0.00000E+00  9.000E+00
       2     1     1     2   502     0  2.108040081E+00  6.557493558E+01 -2.506557111E+01  7.023466213E+01  3.300000000E-01  0.00000E+00  9.000E+00
      21     1     1     2   511   501  1.617810936E+01 -3.695430335E+01 -4.873313256E+02  4.889981316E+02  7.629394531E-06  0.00000E+00  9.000E+00
</event>
<event>
      8  10001  1.05344E-02  4.89005E+02 -1.00000E+00  1.00638E-01
      -2    -1     0     0     0   501  0.000000000E+00  0.000000000E+00  7.634922211E+02  7.634922211E+02  0.000000000E+00  0.00000E+00  9.000E+00
      -1    -1     0     0     0   502  0.000000000E+00  0.000000000E+00 -5.272647554E+02  5.272647554E+02  0.000000000E+00  0.00000E+00  9.000E+00
      23     2     1     2     0     0  5.751701796E+01 -1.443542091E+01 -2.732093392E+02  2.940666304E+02  9.118800000E+01  0.00000E+00  9.000E+00
     -13     1     3     3     0     0  8.219976476E+01 -1.666145447E+01 -2.049398634E+02  2.214379466E+02  1.057000000E-01  0.00000E+00  9.000E+00
      13     1     3     3     0     0 -2.468274680E+01  2.226033557E+00 -6.826947577E+01  7.262868380E+01  1.057000000E-01  0.00000E+00  9.000E+00
      -1     1     1     2     0   511  1.259228807E+02  2.393551361E+02  6.902220565E+01  2.791265427E+02  3.300000000E-01  0.00000E+00  9.000E+00
      -2     1     1     2     0   502 -2.372169371E+02  2.956728463E+01  3.825480326E+02  4.510977784E+02  3.300000000E-01  0.00000E+00  9.000E+00
      21     1     1     2   511   501  5.377703844E+01 -2.544869998E+02  5.786656673E+01  2.664660250E+02  1.022701768E-05  0.00000E+00  9.000E+00
</event>
<event>
      8  10001  1.10326E-02  9.26581E+01 -1.00000E+00  1.27785E-01
       3    -1     0     0   501     0  0.000000000E+00  0.000000000E+00  3.759973057E+01  3.759973057E+01  0.000000000E+00  0.00000E+00  9.000E+00
       2    -1     0     0   502     0  0.000000000E+00  0.000000000E+00 -1.221862862E+03  1.221862862E+03  0.000000000E+00  0.00000E+00  9.000E+00
      23     2     1     2     0     0 -1.520075756E+01 -3.117397354E+01 -6.650622510E+02  6.721799824E+02  9.118800000E+01  0.00000E+00  9.000E+00
     -13     1     3     3     0     0 -2.067454526E+01 -3.894742147E+01 -6.598797963E+02  6.613514158E+02  1.057000000E-01  0.00000E+00  9.000E+00
      13     1     3     3     0     0  5.473787695E+00  7.773447931E+00 -5.182454691E+00  1.082856655E+01  1.057000000E-01  0.00000E+00  9.000E+00
       4     1     1     2   511     0  3.264178858E+01  4.923028930E+01 -1.201901348E+02  1.339291837E+02  1.500000000E+00  0.00000E+00  9.000E+00
       1     1     1     2   502     0 -5.787523837E+01 -3.231677312E+01 -1.631802566E+01  6.826641855E+01  3.300000000E-01  0.00000E+00  9.000E+00
      21     1     1     2   501   511  4.043420735E+01  1.426045735E+01 -3.826927198E+02  3.850870078E+02  5.394796609E-06  0.00000E+00  9.000E+00
</event>
<event>
      8  10001  1.10700E-02  3.89861E+01 -1.00000E+00  1.48873E-01
       4    -1     0     0   501     0  0.000000000E+00  0.000000000E+00  1.555825185E+02  1.555825185E+02  0.000000000E+00  0.00000E+00  9.000E+00
       2    -1     0     0   502     0  0.000000000E+00  0.000000000E+00 -3.835902226E+02  3.835902226E+02  0.000000000E+00  0.00000E+00  9.000E+00
      23     2     1     2     0     0 -2.096320574E+02  5.473399969E+01 -2.123741894E+02  3.167956090E+02  9.118800000E+01  0.00000E+00  9.000E+00
     -13     1     3     3     0     0 -6.084847282E+01 -9.503476170E+00 -1.071021614E+02  1.235464967E+02  1.057000000E-01  0.00000E+00  9.000E+00
      13     1     3     3     0     0 -1.487835846E+02  6.423747586E+01 -1.052720280E+02  1.932491123E+02  1.057000000E-01  0.00000E+00  9.000E+00
       4     1     1     2   511     0  1.311957037E+01 -2.240836868E+00  9.738901106E+00  1.656021351E+01  1.500000000E+00  0.00000E+00  9.000E+00
       2     1     1     2   502     0  1.475196906E+02 -4.012289966E+01 -1.096040967E+01  1.532714770E+02  3.300000000E-01  0.00000E+00  9.000E+00
      21     1     1     2   501   511  4.899279645E+01 -1.237026316E+01 -1.441200617E+01  5.254544163E+01  1.617033478E-06  0.00000E+00  9.000E+00
</event>
<event>
      8  10001  1.29688E-02  4.22272E+02 -1.00000E+00  1.02552E-01
       2    -1     0     0   501     0  0.000000000E+00  0.000000000E+00  3.440756667E+03  3.440756667E+03  0.000000000E+00  0.00000E+00  9.000E+00
       1    -1     0     0   502     0  0.000000000E+00  0.000000000E+00 -1.903282319E+01  1.903282319E+01  0.000000000E+00  0.00000E+00  9.000E+00
      23     2     1     2     0     0  6.421052729E+01 -4.716780313E+01  2.365352319E+02  2.657291115E+02  9.118800000E+01  0.00000E+00  9.000E+00
     -13     1     3     3     0     0 -4.554570239E+00 -4.804864862E+01  1.325174376E+02  1.410329720E+02  1.057000000E-01  0.00000E+00  9.000E+00
      13     1     3     3     0     0  6.876509753E+01  8.808454856E-01  1.040177942E+02  1.246961395E+02  1.057000000E-01  0.00000E+00  9.000E+00
       1     1     1     2   501     0 -3.491023841E+01  3.257023199E+00  3.242375320E+02  3.261279182E+02  3.300000000E-01  0.00000E+00  9.000E+00
       2     1     1     2   511     0  2.318096812E+01 -2.119181022E+01  8.333220982E+01  8.905513010E+01  3.300000000E-01  0.00000E+00  9.000E+00
      21     1     1     2   502   511 -5.248125700E+01  6.510259015E+01  2.777618870E+03  2.778877330E+03  7.475249459E-05  0.00000E+00  9.000E+00
</event>
<event>
      8  10001  1.23554E-02  4.22071E+01 -1.00000E+00  1.46646E-01
       4    -1     0     0   501     0  0.000000000E+00  0.000000000E+00  1.031151781E+02  1.031151781E+02  0.000000000E+00  0.00000E+00  9.000E+00
       4    -1     0     0   502     0  0.000000000E+00  0.000000000E+00 -1.465635267E+02  1.465635267E+02  0.000000000E+00  0.00000E+00  9.000E+00
      23     2     1     2     0     0 -1.803990327E+01 -3.617739769E+01  4.444876762E+01  1.092025023E+02  9.118800000E+01  0.00000E+00  9.000E+00
     -13     1     3     3     0     0 -4.746713422E+00 -3.491253874E+01  7.112324621E+01  7.937218640E+01  1.057000000E-01  0.00000E+00  9.000E+00
      13     1     3     3     0     0 -1.329318984E+01 -1.264858956E+00 -2.667447859E+01  2.983031587E+01  1.057000000E-01  0.00000E+00  9.000E+00
       4     1     1     2   501     0  3.946018758E+01  2.842274865E+01 -7.051418141E+01  8.567064155E+01  1.500000000E+00  0.00000E+00  9.000E+00
       4     1     1     2   512     0 -7.831707739E+00  5.868435619E+00 -3.274522721E+01  3.420926903E+01  1.500000000E+00  0.00000E+00  9.000E+00
      21     1     1     2   502   512 -1.358857657E+01  1.886213429E+00  1.536229240E+01  2.059629195E+01  5.840038640E-07  0.00000E+00  9.000E+00
</event>
<event>
      8  10001  1.16984E-02  2.78268E+02 -1.00000E+00  1.08420E-01
       2    -1     0     0   501     0  0.000000000E+00  0.000000000E+00  1.330080740E+03  1.330080740E+03  0.000000000E+00  0.00000E+00  9.000E+00
       1    -1     0     0   502     0  0.000000000E+00  0.000000000E+00 -9.108569245E+01  9.108569245E+01  0.000000000E+00  0.00000E+00  9.000E+00
      23     2     1     2     0     0 -7.043054706E+01 -2.954858643E+01  1.075918870E+03  1.082474132E+03  9.118800000E+01  0.00000E+00  9.000E+00
     -13     1     3     3     0     0  2.299129865E+00  2.178869123E+01  4.161489292E+02  4.167252998E+02  1.057000000E-01  0.00000E+00  9.000E+00
      13     1     3     3     0     0 -7.272967693E+01 -5.133727766E+01  6.597699406E+02  6.657488323E+02  1.057000000E-01  0.00000E+00  9.000E+00
       1     1     1     2   511     0 -6.132121195E+01 -3.831401444E+01  1.557604443E+02  1.717255940E+02  3.300000000E-01  0.00000E+00  9.000E+00
       2     1     1     2   502     0  9.204168396E+01  5.412502868E+01  3.969780808E+01  1.139175807E+02  3.300000000E-01  0.00000E+00  9.000E+00
      21     1     1     2   501   511  3.971007505E+01  1.373757219E+01 -3.238207479E+01  5.304912551E+01  4.744469820E-06  0.00000E+00  9.000E+00
</event>
<event>
      8  10001  1.20276E-02  2.36321E+02 -1.00000E+00  1.10910E-01
       1    -1     0     0   501     0  0.000000000E+00  0.000000000E+00  3.284720024E+01  3.284720024E+01  0.000000000E+00  0.00000E+00  9.000E+00
       2    -1     0     0   502     0  0.000000000E+00  0.000000000E+00 -1.770837818E+03  1.770837818E+03  0.000000000E+00  0.00000E+00  9.000E+00
      23     2     1     2     0     0  3.027862466E+01 -5.773478003E+01 -4.450785587E+02  4.589774228E+02  9.118800000E+01  0.00000E+00  9.000E+00
     -13     1     3     3     0     0  3.079914740E+01 -1.935340224E+01 -3.908463806E+02  3.925354074E+02  1.057000000E-01  0.00000E+00  9.000E+00
      13     1     3     3     0     0 -5.205227411E-01 -3.838137779E+01 -5.423217809E+01  6.644201545E+01  1.057000000E-01  0.00000E+00  9.000E+00
       2     1     1     2   511     0 -1.851904543E+01  8.885099951E+00 -6.444760379E+01  6.764246137E+01  3.300000000E-01  0.00000E+00  9.000E+00
       1     1     1     2   502     0  1.601461819E+01  5.674583766E+01 -1.189258850E+01  6.015064961E+01  3.300000000E-01  0.00000E+00  9.000E+00
      21     1     1     2   501   511 -2.777419741E+01 -7.896157582E+00 -1.216571867E+03  1.216914484E+03  4.315837288E-05  0.00000E+00  9.000E+00
</event>
<event>
      8  10001  1.11423E-02  3.38373E+02 -1.00000E+00  1.05585E-01
       1    -1     0     0   501     0  0.000000000E+00  0.000000000E+00  6.570949256E+02  6.570949256E+02  0.000000000E+00  0.00000E+00  9.000E+00
      -1    -1     0     0     0   502  0.000000000E+00  0.000000000E+00 -7.973249133E+01  7.973249133E+01  0.000000000E+00  0.00000E+00  9.000E+00
      23     2     1     2     0     0 -7.156793622E+01 -3.017741096E+01  2.296783165E+02  2.590367272E+02  9.118800000E+01  0.00000E+00  9.000E+00
     -13     1     3     3     0     0 -3.641104510E+00  2.170912327E+01  1.087112017E+02  1.109174478E+02  1.057000000E-01  0.00000E+00  9.000E+00
      13     1     3     3     0     0 -6.792683171E+01 -5.188653423E+01  1.209671148E+02  1.481192794E+02  1.057000000E-01  0.00000E+00  9.000E+00
       2     1     1     2   501     0 -3.599164325E+00 -3.138923745E+01 -1.273343146E+01  3.406592709E+01  3.300000000E-01  0.00000E+00  9.000E+00
      -2     1     1     2     0   511 -5.777157063E+01 -9.242075701E+00  6.225927911E+00  5.883741509E+01  3.300000000E-01  0.00000E+00  9.000E+00
      21     1     1     2   511   502  1.329386712E+02  7.080872411E+01  3.541916213E+02  3.848873475E+02  3.814697266E-06  0.00000E+00  9.000E+00
</event>
<event>
      8  10001  7.39282E-02  2.66985E+01 -1.00000E+00  1.60533E-01
       4    -1     0     0   501     0  0.000000000E+00  0.000000000E+00  1.686388867E+01  1.686388867E+01  0.000000000E+00  0.00000E+00  9.000E+00
       2    -1     0     0   502     0  0.000000000E+00  0.000000000E+00 -5.039074370E+02  5.039074370E+02  0.000000000E+00  0.00000E+00  9.000E+00
      23     2     1     2     0     0  1.265260272E+01 -5.176711576E+01 -1.850363450E+02  2.130577925E+02  9.118800000E+01  0.00000E+00  9.000E+00
     -13     1     3     3     0     0 -2.540175512E+01 -2.232688091E+01 -1.619873377E+01  3.749865227E+01  1.057000000E-01  0.00000E+00  9.000E+00
      13     1     3     3     0     0  3.805435783E+01 -2.944023485E+01 -1.688376112E+02  1.755591402E+02  1.057000000E-01  0.00000E+00  9.000E+00
       4     1     1     2   512     0 -2.484436935E-01 -4.043683714E-02 -2.313045758E+00  2.768309969E+00  1.500000000E+00  0.00000E+00  9.000E+00
       2     1     1     2   502     0 -1.538221178E+01  4.511341041E+01 -2.313288637E+02  2.361884509E+02  3.300000000E-01  0.00000E+00  9.000E+00
      21     1     1     2   501   512  2.978052760E+00  6.694142180E+00 -6.836529387E+01  6.875677235E+01  1.348699152E-06  0.00000E+00  9.000E+00
</event>
<event>
      8  10001  3.63107E-02  2.32020E+01 -1.00000E+00  1.65350E-01
       1    -1     0     0   501     0  0.000000000E+00  0.000000000E+00  1.322452078E+02  1.322452078E+02  0.000000000E+00  0.00000E+00  9.000E+00
      21    -1     0     0   502   511  0.000000000E+00  0.000000000E+00 -1.174823403E+02  1.174823403E+02  0.000000000E+00  0.00000E+00  9.000E+00
      23     2     1     2     0     0  5.238276629E+00  3.607565077E+01  7.408073442E+01  1.230125956E+02  9.118800000E+01  0.00000E+00  9.000E+00
     -13     1     3     3     0     0 -2.692211382E+01  4.461742928E+00 -8.786334446E+00  2.866911593E+01  1.057000000E-01  0.00000E+00  9.000E+00
      13     1     3     3     0     0  3.216039045E+01  3.161390784E+01  8.286706886E+01  9.434347967E+01  1.057000000E-01  0.00000E+00  9.000E+00
       2     1     1     2   501     0 -2.569893955E+01 -3.700078674E+01  8.582900595E+00  4.586140857E+01  3.300000000E-01  0.00000E+00  9.000E+00
       3     1     1     2   502     0  1.889376142E+00 -1.297453085E+01 -4.949221665E+01  5.120193065E+01  5.000000000E-01  0.00000E+00  9.000E+00
      -4     1     1     2     0   511  1.857128678E+01  1.389966682E+01 -1.840855084E+01  2.965161335E+01  1.500000000E+00  0.00000E+00  9.000E+00
</event>
<event>
      8  10001  1.05374E-02  2.91266E+02 -1.00000E+00  1.07745E-01
       2    -1     0     0   501     0  0.000000000E+00  0.000000000E+00  1.749459124E+03  1.749459124E+03  0.000000000E+00  0.00000E+00  9.000E+00
      -2    -1     0     0     0   502  0.000000000E+00  0.000000000E+00 -1.476443153E+02  1.476443153E+02  0.000000000E+00  0.00000E+00  9.000E+00
      23     2     1     2     0     0  2.819226998E+01  8.528659514E+01  2.157642891E+02  2.508746444E+02  9.118800000E+01  0.00000E+00  9.000E+00
     -13     1     3     3     0     0  6.970415333E+00  8.814460020E+01  1.014588495E+02  1.345807065E+02  1.057000000E-01  0.00000E+00  9.000E+00
      13     1     3     3     0     0  2.122185465E+01 -2.858005052E+00  1.143054395E+02  1.162939379E+02  1.057000000E-01  0.00000E+00  9.000E+00
       1     1     1     2   511     0 -3.049369544E+02 -3.277703428E+01  4.659582428E+02  5.578333740E+02  3.300000000E-01  0.00000E+00  9.000E+00
      -1     1     1     2     0   502  2.865828049E+02 -1.439393538E+02  9.409515630E+02  9.941017023E+02  3.300000000E-01  0.00000E+00  9.000E+00
      21     1     1     2   501   511 -9.838120531E+00  9.142979297E+01 -2.085928586E+01  9.429371912E+01  2.718390048E-06  0.00000E+00  9.000E+00
</event>
<event>
      8  10001  1.06884E-02  9.00902E+02 -1.00000E+00  9.33917E-02
       2    -1     0     0   501     0  0.000000000E+00  0.000000000E+00  3.661665405E+02  3.661665405E+02  0.000000000E+00  0.00000E+00  9.000E+00
      -3    -1     0     0     0   502  0.000000000E+00  0.000000000E+00 -7.094080216E+02  7.094080216E+02  0.000000000E+00  0.00000E+00  9.000E+00
      23     2     1     2     0     0 -8.424815091E+00 -1.912836732E+02 -3.114908467E+02  3.768318193E+02  9.118800000E+01  0.00000E+00  9.000E+00
     -13     1     3     3     0     0 -4.387953050E+01 -1.172215319E+02 -2.256717252E+02  2.580582094E+02  1.057000000E-01  0.00000E+00  9.000E+00
      13     1     3     3     0     0  3.545471541E+01 -7.406214128E+01 -8.581912154E+01  1.187736099E+02  1.057000000E-01  0.00000E+00  9.000E+00
       2     1     1     2   501     0  8.906995602E+01 -5.226081864E+01 -1.934033798E+02  2.192478653E+02  3.300000000E-01  0.00000E+00  9.000E+00
      -3     1     1     2     0   511 -6.577015067E+00  1.144561496E+01 -1.121886519E+02  1.129637236E+02  5.000000000E-01  0.00000E+00  9.000E+00
      21     1     1     2   511   502 -7.406812587E+01  2.320988769E+02  2.738413973E+02  3.665311539E+02  7.629394531E-06  0.00000E+00  9.000E+00
</event>
<event>
      8  10001  1.06230E-02  3.78955E+02 -1.00000E+00  1.04011E-01
       2    -1     0     0   501     0  0.000000000E+00  0.000000000E+00  7.501783744E+01  7.501783744E+01  0.000000000E+00  0.00000E+00  9.000E+00
      -2    -1     0     0     0   502  0.000000000E+00  0.000000000E+00 -1.118809243E+03  1.118809243E+03  0.000000000E+00  0.00000E+00  9.000E+00
      23     2     1     2     0     0 -2.176476020E+01  1.553310110E+01 -9.597449880E+01  1.350604967E+02  9.118800000E+01  0.00000E+00  9.000E+00
     -13     1     3     3     0     0 -4.602755385E+01 -1.774806203E+01 -7.238647565E+01  8.759761668E+01  1.057000000E-01  0.00000E+00  9.000E+00
      13     1     3     3     0     0  2.426279365E+01  3.328116312E+01 -2.358802316E+01  4.746288006E+01  1.057000000E-01  0.00000E+00  9.000E+00
       1     1     1     2   512     0  1.038869607E+02 -1.148140010E+02 -1.069536115E+02  1.881859170E+02  3.300000000E-01  0.00000E+00  9.000E+00
      -1     1     1     2     0   502  4.196127215E+01  7.071042146E+01 -1.846748735E+02  2.021524916E+02  3.300000000E-01  0.00000E+00  9.000E+00
      21     1     1     2   501   512 -1.240834727E+02  2.857047845E+01 -6.561884216E+02  6.684281749E+02  1.321449896E-05  0.00000E+00  9.000E+00
</event>
<event>
      8  10001  1.17386E-02  5.11326E+01 -1.00000E+00  1.41535E-01
       2    -1     0     0   501     0  0.000000000E+00  0.000000000E+00  1.217748744E+02  1.217748744E+02  0.000000000E+00  0.00000E+00  9.000E+00
      -2    -1     0     0     0   502  0.000000000E+00  0.000000000E+00 -2.139122255E+02  2.139122255E+02  0.000000000E+00  0.00000E+00  9.000E+00
      23     2     1     2     0     0 -8.829335115E+01  8.542999627E+01 -3.097811294E+01  1.561053969E+02  9.118800000E+01  0.00000E+00  9.000E+00
     -13     1     3     3     0     0 -5.313730314E+01 -4.545582489E+00 -2.611729625E+01  5.938315957E+01  1.057000000E-01  0.00000E+00  9.000E+00
      13     1     3     3     0     0 -3.515604802E+01  8.997557876E+01 -4.860816690E+00  9.672223734E+01  1.057000000E-01  0.00000E+00  9.000E+00
       2     1     1     2   511     0  1.113755430E+01 -3.477170426E+01 -7.568759010E+00  3.728956349E+01  3.300000000E-01  0.00000E+00  9.000E+00
      -2     1     1     2     0   502  8.225510114E+01 -5.522765621E+01 -1.160682347E+01  9.975381158E+01  3.300000000E-01  0.00000E+00  9.000E+00
      21     1     1     2   501   511 -5.099304282E+00  4.569364204E+00 -4.198365569E+01  4.253832788E+01  1.430511475E-06  0.00000E+00  9.000E+00
</event>
<event>
      8  10001  1.05737E-02  6.60657E+02 -1.00000E+00  9.69323E-02
       2    -1     0     0   501     0  0.000000000E+00  0.000000000E+00  2.763308555E+03  2.763308555E+03  0.000000000E+00  0.00000E+00  9.000E+00
      -2    -1     0     0     0   502  0.000000000E+00  0.000000000E+00 -1.253767909E+02  1.253767909E+02  0.000000000E+00  0.00000E+00  9.000E+00
      23     2     1     2     0     0  3.854219903E+01  2.057273261E+02  1.230073710E+03  1.251081859E+03  9.118800000E+01  0.00000E+00  9.000E+00
     -13     1     3     3     0     0 -5.088649139E+00  5.178257386E+00  2.325296217E+02  2.326429557E+02  1.057000000E-01  0.00000E+00  9.000E+00
      13     1     3     3     0     0  4.363084817E+01  2.005490687E+02  9.975440883E+02  1.018438903E+03  1.057000000E-01  0.00000E+00  9.000E+00
       1     1     1     2   511     0 -3.069335735E+01 -1.934199178E+02  1.306196377E+03  1.320796135E+03  3.300000000E-01  0.00000E+00  9.000E+00
      -1     1     1     2     0   502  7.624830038E+01  1.051822893E+02  1.125856428E+02  1.719091421E+02  3.300000000E-01  0.00000E+00  9.000E+00
      21     1     1     2   501   511 -8.409714206E+01 -1.174896975E+02 -1.092396513E+01  1.448982103E+02  9.484445706E-06  0.00000E+00  9.000E+00
</event>
<event>
      8  10001  1.06019E-02  2.59405E+02 -1.00000E+00  1.09476E-01
       3    -1     0     0   501     0  0.000000000E+00  0.000000000E+00  1.404186201E+02  1.404186201E+02  0.000000000E+00  0.00000E+00  9.000E+00
       2    -1     0     0   502     0  0.000000000E+00  0.000000000E+00 -9.037791600E+02  9.037791600E+02  0.000000000E+00  0.00000E+00  9.000E+00
      23     2     1     2     0     0  1.590641177E+02 -2.913079986E+01 -1.490696270E+02  2.380903234E+02  9.118800000E+01  0.00000E+00  9.000E+00
     -13     1     3     3     0     0  1.352565877E+02  1.284116005E+01 -9.597558325E+01  1.663447133E+02  1.057000000E-01  0.00000E+00  9.000E+00
      13     1     3     3     0     0  2.380753003E+01 -4.197195991E+01 -5.309404375E+01  7.174561004E+01  1.057000000E-01  0.00000E+00  9.000E+00
       4     1     1     2   501     0 -6.912565050E+01  1.524382850E+02 -3.917021367E+02  4.259678394E+02  1.500000000E+00  0.00000E+00  9.000E+00
       1     1     1     2   511     0 -8.744631364E+01 -1.183681922E+02 -2.832642108E+02  3.192124821E+02  3.300000000E-01  0.00000E+00  9.000E+00
      21     1     1     2   502   511 -2.492153561E+00 -4.939292940E+00  6.067543463E+01  6.092713526E+01  1.907348633E-06  0.00000E+00  9.000E+00
</event>
<event>
      8  10001  1.05332E-02  4.59301E+02 -1.00000E+00  1.01446E-01
       3    -1     0     0   501     0  0.000000000E+00  0.000000000E+00  9.845655039E+02  9.845655039E+02  0.000000000E+00  0.00000E+00  9.000E+00
       2    -1     0     0   502     0  0.000000000E+00  0.000000000E+00 -7.014945990E+02  7.014945990E+02  0.000000000E+00  0.00000E+00  9.000E+00
      23     2     1     2     0     0 -2.462370483E+02 -4.115042428E+02  4.067873188E+02  6.354208054E+02  9.118800000E+01  0.00000E+00  9.000E+00
     -13     1     3     3     0     0 -5.174282177E+01 -4.273397931E+01  3.014615913E+01  7.356843532E+01  1.057000000E-01  0.00000E+00  9.000E+00
      13     1     3     3     0     0 -1.944942266E+02 -3.687702635E+02  3.766411596E+02  5.618523700E+02  1.057000000E-01  0.00000E+00  9.000E+00
       4     1     1     2   512     0 -2.248082013E+01 -5.981068269E+01  1.419600011E+02  1.556842861E+02  1.500000000E+00  0.00000E+00  9.000E+00
       1     1     1     2   502     0  3.751870652E+02  5.480940662E+02 -8.208120861E+01  6.692606914E+02  3.300000000E-01  0.00000E+00  9.000E+00
      21     1     1     2   501   512 -1.064691968E+02 -7.677914068E+01 -1.835952064E+02  2.256943201E+02  2.697398305E-06  0.00000E+00  9.000E+00
</event>
<event>
      8  10001  1.41966E-02  1.50216E+02 -1.00000E+00  1.18470E-01
       1    -1     0     0   501     0  0.000000000E+00  0.000000000E+00  5.034498580E+02  5.034498580E+02  0.000000000E+00  0.00000E+00  9.000E+00
      -3    -1     0     0     0   502  0.000000000E+00  0.000000000E+00 -1.500750438E+02  1.500750438E+02  0.000000000E+00  0.00000E+00  9.000E+00
      23     2     1     2     0     0  1.466644467E+02  5.527179977E+00 -7.872463635E+01  1.898784594E+02  9.118800000E+01  0.00000E+00  9.000E+00
     -13     1     3     3     0     0 -6.665883570E+00 -2.314468515E+00 -2.694100847E+01  2.784995293E+01  1.057000000E-01  0.00000E+00  9.000E+00
      13     1     3     3     0     0  1.533303303E+02  7.841648492E+00 -5.178362788E+01  1.620285065E+02  1.057000000E-01  0.00000E+00  9.000E+00
       2     1     1     2   501     0 -2.326442378E+01  1.106992939E+01  1.578945085E+02  1.599830037E+02  3.300000000E-01  0.00000E+00  9.000E+00
      -4     1     1     2     0   511 -4.771421168E+00  7.718991693E+00  1.558284850E+01  1.809487386E+01  1.500000000E+00  0.00000E+00  9.000E+00
      21     1     1     2   511   502 -1.186286017E+02 -2.431610106E+01  2.586220935E+02  2.855685647E+02  1.206313194E-05  0.00000E+00  9.000E+00
</event>
<event>
      8  10001  1.14727E-02  1.17000E+02 -1.00000E+00  1.23107E-01
       2    -1     0     0   501     0  0.000000000E+00  0.000000000E+00  1.025816657E+02  1.025816657E+02  0.000000000E+00  0.00000E+00  9.000E+00
       2    -1     0     0   502     0  0.000000000E+00  0.000000000E+00 -5.188806206E+02  5.188806206E+02  0.000000000E+00  0.00000E+00  9.000E+00
      23     2     1     2     0     0 -4.474335891E+00  4.005075228E+01 -1.671815509E+02  1.946509819E+02  9.118800000E+01  0.00000E+00  9.000E+00
     -13     1     3     3     0     0  9.574191200E+00  9.334219263E+00  8.438835364E+00  1.581195437E+01  1.057000000E-01  0.00000E+00  9.000E+00
      13     1     3     3     0     0 -1.404852709E+01  3.071653301E+01 -1.756203863E+02  1.788390275E+02  1.057000000E-01  0.00000E+00  9.000E+00
       2     1     1     2   501     0  1.440611550E+01 -8.675675531E+01  5.626134740E+01  1.044017187E+02  3.300000000E-01  0.00000E+00  9.000E+00
       2     1     1     2   512     0  4.292257045E+00  5.546866699E+01 -8.620007009E+01  1.025951143E+02  3.300000000E-01  0.00000E+00  9.000E+00
      21     1     1     2   502   512 -1.422403665E+01 -8.762663950E+00 -2.191786813E+02  2.198144714E+02  5.394796609E-06  0.00000E+00  9.000E+00
</event>
<event>
      8  10001  1.62400E-02  1.23181E+02 -1.00000E+00  1.22122E-01
      -2    -1     0     0     0   501  0.000000000E+00  0.000000000E+00  9.438009947E+00  9.438009947E+00  0.000000000E+00  0.00000E+00  9.000E+00
       2    -1     0     0   502     0  0.000000000E+00  0.000000000E+00 -1.195928626E+03  1.195928626E+03  0.000000000E+00  0.00000E+00  9.000E+00
      23     2     1     2     0     0  3.152630581E+00  8.598335153E+00 -6.043883398E+02  6.112972984E+02  9.118800000E+01  0.00000E+00  9.000E+00
     -13     1     3     3     0     0 -4.356879108E+01  1.819336710E+00 -2.494307793E+02  2.532138906E+02  1.057000000E-01  0.00000E+00  9.000E+00
      13     1     3     3     0     0  4.672142166E+01  6.778998443E+00 -3.549575604E+02  3.580834078E+02  1.057000000E-01  0.00000E+00  9.000E+00
      -2     1     1     2     0   501 -2.513113398E+01 -8.758680794E+00 -4.082952472E+02  4.091618337E+02  3.300000000E-01  0.00000E+00  9.000E+00
       2     1     1     2   511     0  3.053345441E+00  1.612574455E+00 -1.630569992E+02  1.630938908E+02  3.300000000E-01  0.00000E+00  9.000E+00
      21     1     1     2   502   511  1.892515796E+01 -1.452228814E+00 -1.075002989E+01  2.181361306E+01  8.085167388E-07  0.00000E+00  9.000E+00
</event>
<event>
      8  10001  1.07055E-02  1.05092E+03 -1.00000E+00  9.17293E-02
       1    -1     0     0   501     0  0.000000000E+00  0.000000000E+00  2.163338844E+02  2.163338844E+02  0.000000000E+00  0.00000E+00  9.000E+00
       2    -1     0     0   502     0  0.000000000E+00  0.000000000E+00 -2.411159457E+03  2.411159457E+03  0.000000000E+00  0.00000E+00  9.000E+00
      23     2     1     2     0     0  1.766892762E+02  2.689958327E+02 -5.256922790E+01  3.386098543E+02  9.118800000E+01  0.00000E+00  9.000E+00
     -13     1     3     3     0     0  5.332942083E+01  1.520466290E+02 -4.963575914E+01  1.685998940E+02  1.057000000E-01  0.00000E+00  9.000E+00
      13     1     3     3     0     0  1.233598553E+02  1.169492037E+02 -2.933468763E+00  1.700099602E+02  1.057000000E-01  0.00000E+00  9.000E+00
       2     1     1     2   512     0  2.123247936E+00 -1.331051803E+02 -2.197387973E+01  1.349238952E+02  3.300000000E-01  0.00000E+00  9.000E+00
       1     1     1     2   502     0 -1.117454814E+02 -2.064312598E+01 -2.078637129E+02  2.368979175E+02  3.300000000E-01  0.00000E+00  9.000E+00
      21     1     1     2   501   512 -6.706704267E+01 -1.152475264E+02 -1.912418752E+03  1.917061674E+03  8.631674575E-05  0.00000E+00  9.000E+00
</event>
<event>
      8  10001  1.11961E-02  8.20524E+01 -1.00000E+00  1.30369E-01
       3    -1     0     0   501     0  0.000000000E+00  0.000000000E+00  5.175890403E+01  5.175890403E+01  0.000000000E+00  0.00000E+00  9.000E+00
       2    -1     0     0   502     0  0.000000000E+00  0.000000000E+00 -1.776712918E+03  1.776712918E+03  0.000000000E+00  0.00000E+00  9.000E+00
      23     2     1     2     0     0 -1.485829518E+01 -5.277193541E+01 -2.797833253E+01  1.100167466E+02  9.118800000E+01  0.00000E+00  9.000E+00
     -13     1     3     3     0     0 -4.513925428E+01 -1.586969621E+01 -3.816690263E+01  6.120558115E+01  1.057000000E-01  0.00000E+00  9.000E+00
      13     1     3     3     0     0  3.028095910E+01 -3.690223920E+01  1.018857010E+01  4.881116548E+01  1.057000000E-01  0.00000E+00  9.000E+00
       3     1     1     2   511     0 -4.320709979E+01  3.241339319E+01 -3.042429940E+02  3.090008591E+02  5.000000000E-01  0.00000E+00  9.000E+00
       2     1     1     2   502     0  5.110750518E+01  3.906972218E+00 -1.390509551E+03  1.391453974E+03  3.300000000E-01  0.00000E+00  9.000E+00
      21     1     1     2   501   511  6.957889786E+00  1.645157000E+01 -2.223136436E+00  1.800024226E+01  3.322123574E-06  0.00000E+00  9.000E+00
</event>
<event>
      8  10001  2.27007E-02  2.14384E+01 -1.00000E+00  1.68197E-01
      -4    -1     0     0     0   501  0.000000000E+00  0.000000000E+00  1.211602308E+02  1.211602308E+02  0.000000000E+00  0.00000E+00  9.000E+00
       2    -1     0     0   502     0  0.000000000E+00  0.000000000E+00 -3.751362060E+02  3.751362060E+02  0.000000000E+00  0.00000E+00  9.000E+00
      23     2     1     2     0     0  1.007278112E+02  1.145758266E+02 -2.156353224E+01  1.790361674E+02  9.118800000E+01  0.00000E+00  9.000E+00
     -13     1     3     3     0     0  2.111326067E+01  5.168253565E+00  2.754719781E+01  3.509045313E+01  1.057000000E-01  0.00000E+00  9.000E+00
      13     1     3     3     0     0  7.961455049E+01  1.094075730E+02 -4.911073006E+01  1.439457143E+02  1.057000000E-01  0.00000E+00  9.000E+00
      -4     1     1     2     0   501 -1.116694858E+02 -1.174636149E+02 -1.386580019E+02  2.132980693E+02  1.500000000E+00  0.00000E+00  9.000E+00
       2     1     1     2   511     0 -6.492218235E-01  1.766164860E+00 -9.219317548E+01  9.221296727E+01  3.300000000E-01  0.00000E+00  9.000E+00
      21     1     1     2   502   511  1.159089649E+01  1.121623408E+00 -1.561265638E+00  1.174923278E+01  4.455422279E-07  0.00000E+00  9.000E+00
</event>
<event>
      8  10001  1.10287E-02  1.82959E+02 -1.00000E+00  1.15054E-01
      -2    -1     0     0     0   501  0.000000000E+00  0.000000000E+00  2.390309604E+02  2.390309604E+02  0.000000000E+00  0.00000E+00  9.000E+00
       2    -1     0     0   502     0  0.000000000E+00  0.000000000E+00 -4.933594880E+02  4.933594880E+02  0.000000000E+00  0.00000E+00  9.000E+00
      23     2     1     2     0     0  1.373353058E+01  4.480727530E+00  1.659494439E+02  1.899030175E+02  9.118800000E+01  0.00000E+00  9.000E+00
     -13     1     3     3     0     0  4.992111411E+01 -4.367844352E+00  6.350761573E+01  8.089761509E+01  1.057000000E-01  0.00000E+00  9.000E+00
      13     1     3     3     0     0 -3.618758353E+01  8.848571882E+00  1.024418281E+02  1.090054024E+02  1.057000000E-01  0.00000E+00  9.000E+00
      -2     1     1     2     0   512  2.336675005E+01  7.323384807E+01 -4.480570826E+01  8.897674923E+01  3.300000000E-01  0.00000E+00  9.000E+00
       2     1     1     2   502     0  1.010621074E+01 -1.095232228E+00 -3.624341278E+02  3.625768069E+02  3.300000000E-01  0.00000E+00  9.000E+00
      21     1     1     2   512   501 -4.720649137E+01 -7.661934338E+01 -1.303813537E+01  9.093387477E+01  3.650997360E-06  0.00000E+00  9.000E+00
</event>
<event>
      8  10001  1.08352E-02  1.75157E+02 -1.00000E+00  1.15792E-01
      -2    -1     0     0     0   501  0.000000000E+00  0.000000000E+00  1.495911493E+02  1.495911493E+02  0.000000000E+00  0.00000E+00  9.000E+00
       2    -1     0     0   502     0  0.000000000E+00  0.000000000E+00 -4.370900467E+02  4.370900467E+02  0.000000000E+00  0.00000E+00  9.000E+00
      23     2     1     2     0     0  1.358852585E+02  1.573777742E+02 -2.385847416E+02  3.293485958E+02  9.118800000E+01  0.00000E+00  9.000E+00
     -13     1     3     3     0     0  5.822506172E+01  1.678162217E+01 -1.013652792E+02  1.180961966E+02  1.057000000E-01  0.00000E+00  9.000E+00
      13     1     3     3     0     0  7.766019674E+01  1.405961520E+02 -1.372194624E+02  2.112523992E+02  1.057000000E-01  0.00000E+00  9.000E+00
      -1     1     1     2     0   501 -1.246988284E+02 -7.848446427E+01 -9.565350442E+00  1.476523408E+02  3.300000000E-01  0.00000E+00  9.000E+00
       1     1     1     2   511     0  5.190805248E+00  7.549870667E+00 -1.634673575E+01  1.874218973E+01  3.300000000E-01  0.00000E+00  9.000E+00
      21     1     1     2   502   511 -1.637723535E+01 -8.644318061E+01 -2.300206964E+01  9.093806970E+01  1.545128989E-06  0.00000E+00  9.000E+00
</event>
<event>
      8  10001  4.93900E-02  6.16214E+01 -1.00000E+00  1.36903E-01
       1    -1     0     0   501     0  0.000000000E+00  0.000000000E+00  1.248283750E+03  1.248283750E+03  0.000000000E+00  0.00000E+00  9.000E+00
      -4    -1     0     0     0   502  0.000000000E+00  0.000000000E+00 -5.182234931E+01  5.182234931E+01  0.000000000E+00  0.00000E+00  9.000E+00
      23     2     1     2     0     0 -1.310347162E+01 -1.246622456E+01  8.568888401E+00  9.335836821E+01  9.118800000E+01  0.00000E+00  9.000E+00
     -13     1     3     3     0     0  2.284324840E+00  3.061037834E+01  2.993143339E+01  4.287324666E+01  1.057000000E-01  0.00000E+00  9.000E+00
      13     1     3     3     0     0 -1.538779646E+01 -4.307660290E+01 -2.136254499E+01  5.048512155E+01  1.057000000E-01  0.00000E+00  9.000E+00
       1     1     1     2   501     0  1.915139141E+01  2.000518546E+01  1.184856792E+03  1.185180455E+03  3.300000000E-01  0.00000E+00  9.000E+00
      -4     1     1     2     0   512 -2.603556142E+00 -2.838096692E+00  1.096997120E+01  1.172277977E+01  1.500000000E+00  0.00000E+00  9.000E+00
      21     1     1     2   512   502 -3.444363649E+00 -4.700864206E+00 -7.934251341E+00  9.844496410E+00  4.296498606E-06  0.00000E+00  9.000E+00
</event>
<event>
      8  10001  1.24512E-02  7.99959E+02 -1.00000E+00  9.47167E-02
       2    -1     0     0   501     0  0.000000000E+00  0.000000000E+00  6.695234773E+02  6.695234773E+02  0.000000000E+00  0.00000E+00  9.000E+00
      -4    -1     0     0     0   502  0.000000000E+00  0.000000000E+00 -2.776941201E+02  2.776941201E+02  0.000000000E+00  0.00000E+00  9.000E+00
      23     2     1     2     0     0  3.425189019E+01  9.373261768E+01  2.938114989E+02  3.234183727E+02  9.118800000E+01  0.00000E+00  9.000E+00
     -13     1     3     3     0     0  5.960732047E+00  5.657681335E+00 -5.663433553E+00  9.981249257E+00  1.057000000E-01  0.00000E+00  9.000E+00
      13     1     3     3     0     0  2.829115814E+01  8.807493634E+01  2.994749324E+02  3.134371234E+02  1.057000000E-01  0.00000E+00  9.000E+00
       1     1     1     2   511     0  1.246464640E+01 -1.601996815E+00  3.187104910E+02  3.189583355E+02  3.300000000E-01  0.00000E+00  9.000E+00
      -3     1     1     2     0   502  2.623380315E+01 -1.735906011E+01  2.348248688E+01  3.925845878E+01  5.000000000E-01  0.00000E+00  9.000E+00
      21     1     1     2   501   511 -7.295033973E+01 -7.477156076E+01 -2.441751195E+02  2.655824304E+02  1.982174844E-05  0.00000E+00  9.000E+00
</event>
<event>
      8  10001  1.38470E-02  3.54492E+01 -1.00000E+00  1.51635E-01
       2    -1     0     0   501     0  0.000000000E+00  0.000000000E+00  1.444034277E+02  1.444034277E+02  0.000000000E+00  0.00000E+00  9.000E+00
      -2    -1     0     0     0   502  0.000000000E+00  0.000000000E+00 -3.307211590E+02  3.307211590E+02  0.000000000E+00  0.00000E+00  9.000E+00
      23     2     1     2     0     0  5.706326719E+00 -6.491806644E+01 -2.835167027E+02  3.048670031E+02  9.118800000E+01  0.00000E+00  9.000E+00
     -13     1     3     3     0     0  2.394111690E+01 -4.037909383E+01 -2.649967104E+02  2.691224925E+02  1.057000000E-01  0.00000E+00  9.000E+00
      13     1     3     3     0     0 -1.823479018E+01 -2.453897261E+01 -1.851999240E+01  3.574451063E+01  1.057000000E-01  0.00000E+00  9.000E+00
       2     1     1     2   511     0 -8.446224483E-01  5.324548474E-01  5.762707395E+00  5.857865803E+00  3.300000000E-01  0.00000E+00  9.000E+00
      -2     1     1     2     0   502 -3.752346727E+00  8.035897997E+01  1.122742320E+02  1.381204469E+02  3.300000000E-01  0.00000E+00  9.000E+00
      21     1     1     2   501   511 -1.109357544E+00 -1.597336838E+01 -2.083796798E+01  2.627927093E+01  9.830249847E-07  0.00000E+00  9.000E+00
</event>
<event>
      8  10001  1.89488E-02  2.05766E+02 -1.00000E+00  1.13114E-01
       2    -1     0     0   501     0  0.000000000E+00  0.000000000E+00  4.188735579E+02  4.188735579E+02  0.000000000E+00  0.00000E+00  9.000E+00
      -2    -1     0     0     0   502  0.000000000E+00  0.000000000E+00 -6.073509171E+01  6.073509171E+01  0.000000000E+00  0.00000E+00  9.000E+00
      23     2     1     2     0     0 -2.978783464E+01  1.197341972E+01  5.336997340E+00  9.682155110E+01  9.118800000E+01  0.00000E+00  9.000E+00
     -13     1     3     3     0     0  3.287789235E+01  8.113368721E-01  4.237156655E+00  3.315989659E+01  1.057000000E-01  0.00000E+00  9.000E+00
      13     1     3     3     0     0 -6.266572699E+01  1.116208284E+01  1.099840685E+00  6.366165451E+01  1.057000000E-01  0.00000E+00  9.000E+00
       2     1     1     2   501     0  3.814210720E+00 -1.908327680E+01  4.927999384E+01  5.298439723E+01  3.300000000E-01  0.00000E+00  9.000E+00
      -2     1     1     2     0   511  1.765085956E+01  3.018928280E+01  1.159084326E+01  3.684293944E+01  3.300000000E-01  0.00000E+00  9.000E+00
      21     1     1     2   511   502  8.322764362E+00 -2.307942571E+01  2.919306317E+02  2.929597618E+02  8.529922400E-06  0.00000E+00  9.000E+00
</event>
<event>
      8  10001  1.32101E-02  7.62468E+01 -1.00000E+00  1.31982E-01
       1    -1     0     0   501     0  0.000000000E+00  0.000000000E+00  8.007487130E+02  8.007487130E+02  0.000000000E+00  0.00000E+00  9.000E+00
      -1    -1     0     0     0   502  0.000000000E+00  0.000000000E+00 -1.270266947E+01  1.270266947E+01  0.000000000E+00  0.00000E+00  9.000E+00
      23     2     1     2     0     0  1.050737876E-01  2.691735328E+01  3.090682473E+02  3.233620074E+02  9.118800000E+01  0.00000E+00  9.000E+00
     -13     1     3     3     0     0  3.654958628E+01  3.338387077E-02  6.035525882E+01  7.055949129E+01  1.057000000E-01  0.00000E+00  9.000E+00
      13     1     3     3     0     0 -3.644451249E+01  2.688396941E+01  2.487129885E+02  2.528025161E+02  1.057000000E-01  0.00000E+00  9.000E+00
       1     1     1     2   512     0 -6.303894410E+00  9.075096923E+00  2.480313757E+02  2.482776041E+02  3.300000000E-01  0.00000E+00  9.000E+00
      -1     1     1     2     0   502  2.280984288E+01 -1.529986808E+01  1.960900099E+02  1.980044842E+02  3.300000000E-01  0.00000E+00  9.000E+00
      21     1     1     2   501   512 -1.661102225E+01 -2.069258213E+01  3.485641065E+01  4.380728682E+01  4.768371582E-07  0.00000E+00  9.000E+00
</event>
<event>
      8  10001  1.36780E-02  1.51719E+02 -1.00000E+00  1.18292E-01
      -1    -1     0     0     0   501  0.000000000E+00  0.000000000E+00  1.607000692E+03  1.607000692E+03  0.000000000E+00  0.00000E+00  9.000E+00
      -2    -1     0     0     0   502  0.000000000E+00  0.000000000E+00 -1.036707144E+02  1.036707144E+02  0.000000000E+00  0.00000E+00  9.000E+00
      23     2     1     2     0     0 -1.754952313E+01 -1.439959665E+02 -2.437412184E+01  1.730669618E+02  9.118800000E+01  0.00000E+00  9.000E+00
     -13     1     3     3     0     0  2.146399883E+01 -1.109304133E+02 -3.956928820E+01  1.197163297E+02  1.057000000E-01  0.00000E+00  9.000E+00
      13     1     3     3     0     0 -3.901352196E+01 -3.306555312E+01  1.519516635E+01  5.335063216E+01  1.057000000E-01  0.00000E+00  9.000E+00
      -2     1     1     2     0   501 -8.197598658E+00  2.662579176E+01  5.535155521E+02  5.542163014E+02  3.300000000E-01  0.00000E+00  9.000E+00
      -1     1     1     2     0   511  7.146593392E+00  3.048562477E+01  1.023373897E+02  1.070210135E+02  3.300000000E-01  0.00000E+00  9.000E+00
      21     1     1     2   511   502  1.860052840E+01  8.688454993E+01  8.718511573E+02  8.763671293E+02  2.642899792E-05  0.00000E+00  9.000E+00
</event>
<event>
      8  10001  1.07195E-02  8.85113E+02 -1.00000E+00  9.35865E-02
       1    -1     0     0   501     0  0.000000000E+00  0.000000000E+00  9.114773184E+01  9.114773184E+01  0.000000000E+00  0.00000E+00  9.000E+00
       2    -1     0     0   502     0  0.000000000E+00  0.000000000E+00 -2.690493812E+03  2.690493812E+03  0.000000000E+00  0.00000E+00  9.000E+00
      23     2     1     2     0     0  2.580129275E+01 -3.828716642E+00 -4.281546063E+01  1.040614280E+02  9.118800000E+01  0.00000E+00  9.000E+00
     -13     1     3     3     0     0  4.765155373E+01  2.870972891E+01 -2.613742582E+01  6.146621273E+01  1.057000000E-01  0.00000E+00  9.000E+00
      13     1     3     3     0     0 -2.185026098E+01 -3.253844555E+01 -1.667803481E+01  4.259521524E+01  1.057000000E-01  0.00000E+00  9.000E+00
       2     1     1     2   512     0  9.972314140E+01 -9.904947956E+00 -2.518016415E+01  1.033293883E+02  3.300000000E-01  0.00000E+00  9.000E+00
       1     1     1     2   502     0 -7.066965135E+01  7.282880108E+01 -1.031104713E+02  1.446724303E+02  3.300000000E-01  0.00000E+00  9.000E+00
      21     1     1     2   501   512 -5.485478280E+01 -5.909513648E+01 -2.428239984E+03  2.429578297E+03  3.051757813E-05  0.00000E+00  9.000E+00
</event>
<event>
      8  10001  1.28533E-02  4.55762E+02 -1.00000E+00  1.01547E-01
       2    -1     0     0   501     0  0.000000000E+00  0.000000000E+00  1.156983755E+03  1.156983755E+03  0.000000000E+00  0.00000E+00  9.000E+00
       1    -1     0     0   502     0  0.000000000E+00  0.000000000E+00 -6.653948480E+01  6.653948480E+01  0.000000000E+00  0.00000E+00  9.000E+00
      23     2     1     2     0     0 -3.886819315E+01  4.822170350E+01  4.641158532E+02  4.770270911E+02  9.118800000E+01  0.00000E+00  9.000E+00
     -13     1     3     3     0     0  2.695276546E+00  6.524909871E+01  2.784324976E+02  2.859884199E+02  1.057000000E-01  0.00000E+00  9.000E+00
      13     1     3     3     0     0 -4.156346969E+01 -1.702739520E+01  1.856833555E+02  1.910386712E+02  1.057000000E-01  0.00000E+00  9.000E+00
       1     1     1     2   511     0 -9.287179978E+00 -7.160843810E+01  4.933724726E+02  4.986286451E+02  3.300000000E-01  0.00000E+00  9.000E+00
       2     1     1     2   502     0  3.411592604E+01 -6.175138707E+00  1.839973258E+02  1.872355563E+02  3.300000000E-01  0.00000E+00  9.000E+00
      21     1     1     2   501   511  1.403944708E+01  2.956187330E+01 -5.104138132E+01  6.063194731E+01  9.910874219E-06  0.00000E+00  9.000E+00
</event>
<event>
      8  10001  1.08608E-02  3.69192E+02 -1.00000E+00  1.04370E-01
       2    -1     0     0   501     0  0.000000000E+00  0.000000000E+00  6.940259984E+02  6.940259984E+02  0.000000000E+00  0.00000E+00  9.000E+00
      -4    -1     0     0     0   502  0.000000000E+00  0.000000000E+00 -1.298744004E+02  1.298744004E+02  0.000000000E+00  0.00000E+00  9.000E+00
      23     2     1     2     0     0 -1.850914882E+02  1.127368161E+02  3.742857106E+02  4.420107388E+02  9.118800000E+01  0.00000E+00  9.000E+00
     -13     1     3     3     0     0 -1.182835218E+02  4.669830634E+01  1.375987068E+02  1.873636534E+02  1.057000000E-01  0.00000E+00  9.000E+00
      13     1     3     3     0     0 -6.680796639E+01  6.603850976E+01  2.366870038E+02  2.546470853E+02  1.057000000E-01  0.00000E+00  9.000E+00
       1     1     1     2   511     0 -1.463770286E+01 -3.053196011E+01  8.996138284E+01  9.612295374E+01  3.300000000E-01  0.00000E+00  9.000E+00
      -3     1     1     2     0   502  6.371109398E+01 -7.191900907E+01  1.134731055E+02  1.486870641E+02  5.000000000E-01  0.00000E+00  9.000E+00
      21     1     1     2   501   511  1.360180970E+02 -1.028584691E+01 -1.356860095E+01  1.370796422E+02  4.238221368E-06  0.00000E+00  9.000E+00
</event>
<event>
      8  10001  1.06644E-02  3.69845E+02 -1.00000E+00  1.04346E-01
       3    -1     0     0   501     0  0.000000000E+00  0.000000000E+00  1.230258245E+02  1.230258245E+02  0.000000000E+00  0.00000E+00  9.000E+00
       2    -1     0     0   502     0  0.000000000E+00  0.000000000E+00 -1.275252766E+03  1.275252766E+03  0.000000000E+00  0.00000E+00  9.000E+00
      23     2     1     2     0     0  4.542093189E+00  1.423254910E+02 -1.455068719E+01  1.697178536E+02  9.118800000E+01  0.00000E+00  9.000E+00
     -13     1     3     3     0     0 -9.855808781E+00  4.918296308E+01 -4.827462550E+01  6.961717794E+01  1.057000000E-01  0.00000E+00  9.000E+00
      13     1     3     3     0     0  1.439790197E+01  9.314252787E+01  3.372393830E+01  1.001006757E+02  1.057000000E-01  0.00000E+00  9.000E+00
       3     1     1     2   511     0 -3.371406537E+01  7.137603622E+01 -7.772566101E+01  1.107822419E+02  5.000000000E-01  0.00000E+00  9.000E+00
       2     1     1     2   502     0 -8.343798008E+01 -1.928352454E+02 -4.431819001E+02  4.904667510E+02  3.300000000E-01  0.00000E+00  9.000E+00
      21     1     1     2   501   511  1.126099523E+02 -2.086628181E+01 -6.167686933E+02  6.273117439E+02  2.288818359E-05  0.00000E+00  9.000E+00
</event>
<event>
      8  10001  1.30618E-02  1.09455E+02 -1.00000E+00  1.24408E-01
      -3    -1     0     0     0   501  0.000000000E+00  0.000000000E+00  9.918461503E+00  9.918461503E+00  0.000000000E+00  0.00000E+00  9.000E+00
       2    -1     0     0   502     0  0.000000000E+00  0.000000000E+00 -5.152392213E+03  5.152392213E+03  0.000000000E+00  0.00000E+00  9.000E+00
      23     2     1     2     0     0  8.534428976E+01  5.861567381E+00 -5.606350489E+02  5.744083174E+02  9.118800000E+01  0.00000E+00  9.000E+00
     -13     1     3     3     0     0  5.866435499E+01 -3.110694274E+01 -1.961817354E+02  2.071145406E+02  1.057000000E-01  0.00000E+00  9.000E+00
      13     1     3     3     0     0  2.667993478E+01  3.696851012E+01 -3.644533134E+02  3.672937768E+02  1.057000000E-01  0.00000E+00  9.000E+00
      -3     1     1     2     0   501 -3.561290361E+01 -3.603236757E+00 -3.889953231E+02  3.906390580E+02  5.000000000E-01  0.00000E+00  9.000E+00
       2     1     1     2   511     0 -5.173310770E+00  2.216869849E+00 -3.967980632E+03  3.967984637E+03  3.300000000E-01  0.00000E+00  9.000E+00
      21     1     1     2   502   511 -4.455807538E+01 -4.475200472E+00 -2.248627481E+02  2.292786623E+02  3.110791479E-05  0.00000E+00  9.000E+00
</event>
<event>
      8  10001  6.70970E-02  1.34435E+01 -1.00000E+00  1.87316E-01
       3    -1     0     0   501     0  0.000000000E+00  0.000000000E+00  2.104983407E+02  2.104983407E+02  0.000000000E+00  0.00000E+00  9.000E+00
       3    -1     0     0   502     0  0.000000000E+00  0.000000000E+00 -2.188381387E+02  2.188381387E+02  0.000000000E+00  0.00000E+00  9.000E+00
      23     2     1     2     0     0  8.216993920E-01 -5.597868341E+00 -1.736470723E+02  1.962156171E+02  9.118800000E+01  0.00000E+00  9.000E+00
     -13     1     3     3     0     0  3.725263299E+01  9.410364003E+00 -1.374221329E+02  1.426925625E+02  1.057000000E-01  0.00000E+00  9.000E+00
      13     1     3     3     0     0 -3.643093360E+01 -1.500823234E+01 -3.622493940E+01  5.352305455E+01  1.057000000E-01  0.00000E+00  9.000E+00
       3     1     1     2   501     0 -9.429658523E-02 -1.038568460E+01  1.962737775E+02  1.965490195E+02  5.000000000E-01  0.00000E+00  9.000E+00
       3     1     1     2   512     0 -1.935047688E+00  1.081390076E+01 -9.735728465E+00  1.468738466E+01  5.000000000E-01  0.00000E+00  9.000E+00
      21     1     1     2   502   512  1.207644882E+00  5.169652177E+00 -2.123077481E+01  2.188445816E+01  7.152557373E-07  0.00000E+00  9.000E+00
</event>
<event>
      8  10001  1.34942E-02  2.07689E+02 -1.00000E+00  1.12963E-01
      -1    -1     0     0     0   501  0.000000000E+00  0.000000000E+00  1.015541209E+03  1.015541209E+03  0.000000000E+00  0.00000E+00  9.000E+00
       2    -1     0     0   502     0  0.000000000E+00  0.000000000E+00 -2.082296185E+02  2.082296185E+02  0.000000000E+00  0.00000E+00  9.000E+00
      23     2     1     2     0     0  1.613947594E+01 -2.431810731E+01  7.293345898E+02  7.355923112E+02  9.118800000E+01  0.00000E+00  9.000E+00
     -13     1     3     3     0     0  4.371351479E+01 -3.826129117E+01  3.308462130E+02  3.359077635E+02  1.057000000E-01  0.00000E+00  9.000E+00
      13     1     3     3     0     0 -2.757403885E+01  1.394318387E+01  3.984883768E+02  3.996845477E+02  1.057000000E-01  0.00000E+00  9.000E+00
      -1     1     1     2     0   511 -2.384006807E+01 -1.337953568E+01  1.048161226E+01  2.928026496E+01  3.300000000E-01  0.00000E+00  9.000E+00
       2     1     1     2   502     0  2.287086960E+01 -4.524291579E+00 -1.930830528E+02  1.944857837E+02  3.300000000E-01  0.00000E+00  9.000E+00
      21     1     1     2   511   501 -1.517027746E+01  4.222193456E+01  2.605784415E+02  2.644124681E+02  8.529922400E-06  0.00000E+00  9.000E+00
</event>
<event>
      8  10001  1.08654E-02  7.36277E+01 -1.00000E+00  1.32765E-01
       2    -1     0     0   501     0  0.000000000E+00  0.000000000E+00  1.642941897E+03  1.642941897E+03  0.000000000E+00  0.00000E+00  9.000E+00
      -2    -1     0     0     0   502  0.000000000E+00  0.000000000E+00 -2.527980033E+01  2.527980033E+01  0.000000000E+00  0.00000E+00  9.000E+00
      23     2     1     2     0     0 -2.695744414E+01 -4.201738619E+01  2.177414370E+02  2.412856176E+02  9.118800000E+01  0.00000E+00  9.000E+00
     -13     1     3     3     0     0  2.483787464E+01 -2.623223434E+01  1.514082904E+02  1.556583815E+02  1.057000000E-01  0.00000E+00  9.000E+00
      13     1     3     3     0     0 -5.179531878E+01 -1.578515185E+01  6.633314661E+01  8.562723619E+01  1.057000000E-01  0.00000E+00  9.000E+00
       2     1     1     2   511     0 -5.512564690E+01  1.728906136E+00  2.376707150E+02  2.439862778E+02  3.300000000E-01  0.00000E+00  9.000E+00
      -2     1     1     2     0   502  1.115749020E+02  1.677301544E+01  1.122483921E+03  1.128140308E+03  3.300000000E-01  0.00000E+00  9.000E+00
      21     1     1     2   501   511 -2.949181093E+01  2.351546461E+01  3.976602366E+01  5.480949394E+01  6.012687785E-06  0.00000E+00  9.000E+00
</event>
<event>
      8  10001  8.34058E-02  5.69583E+01 -1.00000E+00  1.38818E-01
       2    -1     0     0   501     0  0.000000000E+00  0.000000000E+00  2.998566076E+02  2.998566076E+02  0.000000000E+00  0.00000E+00  9.000E+00
      -3    -1     0     0     0   502  0.000000000E+00  0.000000000E+00 -9.021447119E+01  9.021447119E+01  0.000000000E+00  0.00000E+00  9.000E+00
      23     2     1     2     0     0  2.064663588E+01 -3.088848373E+01  2.403362596E+02  2.597251451E+02  9.118800000E+01  0.00000E+00  9.000E+00
     -13     1     3     3     0     0  5.099140871E+00 -2.918003163E+01  2.421714373E+02  2.439764163E+02  1.057000000E-01  0.00000E+00  9.000E+00
      13     1     3     3     0     0  1.554749501E+01 -1.708452095E+00 -1.835177749E+00  1.574872882E+01  1.057000000E-01  0.00000E+00  9.000E+00
       2     1     1     2   501     0  1.978067563E+00  8.268936034E+00 -1.753499678E+01  1.949033264E+01  3.300000000E-01  0.00000E+00  9.000E+00
      -3     1     1     2     0   511 -7.991990412E+00  4.644800177E+00 -5.887582114E+01  5.959914760E+01  5.000000000E-01  0.00000E+00  9.000E+00
      21     1     1     2   511   502 -1.463271303E+01  1.797474751E+01  4.571669480E+01  5.125645347E+01  6.743495762E-07  0.00000E+00  9.000E+00
</event>
<event>
      8  10001  2.29271E-02  5.00489E+01 -1.00000E+00  1.42088E-01
       1    -1     0     0   501     0  0.000000000E+00  0.000000000E+00  1.490477419E+03  1.490477419E+03  0.000000000E+00  0.00000E+00  9.000E+00
       4    -1     0     0   502     0  0.000000000E+00  0.000000000E+00 -4.980647532E+00  4.980647532E+00  0.000000000E+00  0.00000E+00  9.000E+00
      23     2     1     2     0     0 -2.980445189E+01 -1.141264599E+01  9.793952554E+02  9.841488055E+02  9.118800000E+01  0.00000E+00  9.000E+00
     -13     1     3     3     0     0 -8.144994152E+00 -3.102770854E+01  1.187213245E+02  1.229789563E+02  1.057000000E-01  0.00000E+00  9.000E+00
      13     1     3     3     0     0 -2.165945774E+01  1.961506255E+01  8.606739309E+02  8.611698492E+02  1.057000000E-01  0.00000E+00  9.000E+00
       1     1     1     2   501     0  1.429608418E+01  1.208858850E+01  9.546797022E+01  9.728696846E+01  3.300000000E-01  0.00000E+00  9.000E+00
       4     1     1     2   512     0  4.426287117E-02 -3.276996550E+00  5.581964790E-01  3.647224821E+00  1.500000000E+00  0.00000E+00  9.000E+00
      21     1     1     2   502   512  1.546410484E+01  2.601054044E+00  4.100753497E+02  4.103750680E+02  5.394796609E-06  0.00000E+00  9.000E+00
</event>
<event>
      8  10001  3.85977E-02  7.00727E+01 -1.00000E+00  1.33889E-01
      -4    -1     0     0     0   501  0.000000000E+00  0.000000000E+00  2.145971356E+02  2.145971356E+02  0.000000000E+00  0.00000E+00  9.000E+00
       2    -1     0     0   502     0  0.000000000E+00  0.000000000E+00 -1.228805704E+03  1.228805704E+03  0.000000000E+00  0.00000E+00  9.000E+00
      23     2     1     2     0     0 -2.294359325E+01  1.955692400E+00 -1.130677213E+03  1.134582057E+03  9.118800000E+01  0.00000E+00  9.000E+00
     -13     1     3     3     0     0 -1.452007634E+01  2.051511794E+01 -8.336291000E+01  8.706944710E+01  1.057000000E-01  0.00000E+00  9.000E+00
      13     1     3     3     0     0 -8.423516909E+00 -1.855942554E+01 -1.047314303E+03  1.047512610E+03  1.057000000E-01  0.00000E+00  9.000E+00
      -4     1     1     2     0   501  1.194042545E+01 -1.046352166E+01  2.101857825E+02  2.107898769E+02  1.500000000E+00  0.00000E+00  9.000E+00
       2     1     1     2   511     0  1.858410311E+00  3.068720881E+00  1.080433671E-01  3.604346001E+00  3.300000000E-01  0.00000E+00  9.000E+00
      21     1     1     2   502   511  9.144757485E+00  5.439108376E+00 -9.382518079E+01  9.442655897E+01  2.336015456E-06  0.00000E+00  9.000E+00
</event>
<event>
      8  10001  8.27668E-02  6.76879E+00 -1.00000E+00  2.25427E-01
       1    -1     0     0   501     0  0.000000000E+00  0.000000000E+00  2.303807358E+03  2.303807358E+03  0.000000000E+00  0.00000E+00  9.000E+00
      21    -1     0     0   502   512  0.000000000E+00  0.000000000E+00 -2.034831380E+00  2.034831380E+00  0.000000000E+00  0.00000E+00  9.000E+00
      23     2     1     2     0     0 -2.258609406E+01  1.731143931E+01  1.591397023E+03  1.594261445E+03  9.118800000E+01  0.00000E+00  9.000E+00
     -13     1     3     3     0     0 -4.152695594E+01  4.360759019E+01  8.338222295E+02  8.359937988E+02  1.057000000E-01  0.00000E+00  9.000E+00
      13     1     3     3     0     0  1.894086187E+01 -2.629615088E+01  7.575747936E+02  7.582676459E+02  1.057000000E-01  0.00000E+00  9.000E+00
       2     1     1     2   501     0  1.622170005E+01 -1.057237402E+01  5.546849061E+02  5.550228577E+02  3.300000000E-01  0.00000E+00  9.000E+00
       3     1     1     2   502     0  9.154321832E+00 -5.923011811E-01  1.043627490E+02  1.047663391E+02  5.000000000E-01  0.00000E+00  9.000E+00
      -4     1     1     2     0   512 -2.789927819E+00 -6.146764108E+00  5.132784865E+01  5.179154809E+01  1.500000000E+00  0.00000E+00  9.000E+00
</event>
<event>
      8  10001  1.06385E-02  2.00870E+02 -1.00000E+00  1.13506E-01
      -2    -1     0     0     0   501  0.000000000E+00  0.000000000E+00  1.313250037E+03  1.313250037E+03  0.000000000E+00  0.00000E+00  9.000E+00
       2    -1     0     0   502     0  0.000000000E+00  0.000000000E+00 -4.217473082E+02  4.217473082E+02  0.000000000E+00  0.00000E+00  9.000E+00
      23     2     1     2     0     0 -8.809047562E+00  1.469586137E+01  1.144167258E+03  1.147923139E+03  9.118800000E+01  0.00000E+00  9.000E+00
     -13     1     3     3     0     0  1.124606556E-01  1.181202525E+01  1.691370217E+01  2.063058607E+01  1.057000000E-01  0.00000E+00  9.000E+00
      13     1     3     3     0     0 -8.921508218E+00  2.883836120E+00  1.127253556E+03  1.127292553E+03  1.057000000E-01  0.00000E+00  9.000E+00
      -2     1     1     2     0   501  6.312493930E+01 -1.585551772E+02 -1.129677214E+02  2.046614697E+02  3.300000000E-01  0.00000E+00  9.000E+00
       2     1     1     2   511     0  6.817279628E+00  8.536244086E+00 -2.154416979E+02  2.157187448E+02  3.300000000E-01  0.00000E+00  9.000E+00
      21     1     1     2   502   511 -6.113317137E+01  1.353230717E+02  7.574488991E+01  1.666939913E+02  3.303624740E-06  0.00000E+00  9.000E+00
</event>
<event>
      8  10001  1.17086E-02  2.74309E+02 -1.00000E+00  1.08634E-01
       1    -1     0     0   501     0  0.000000000E+00  0.000000000E+00  1.201486208E+02  1.201486208E+02  0.000000000E+00  0.00000E+00  9.000E+00
      -3    -1     0     0     0   502  0.000000000E+00  0.000000000E+00 -5.165141111E+02  5.165141111E+02  0.000000000E+00  0.00000E+00  9.000E+00
      23     2     1     2     0     0 -1.081294997E+02  6.217100994E+01 -4.162551851E+02  4.440054658E+02  9.118800000E+01  0.00000E+00  9.000E+00
     -13     1     3     3     0     0 -4.266097626E+01  7.368231321E+01 -2.752493055E+02  2.881167012E+02  1.057000000E-01  0.00000E+00  9.000E+00
      13     1     3     3     0     0 -6.546852339E+01 -1.151130327E+01 -1.410058796E+02  1.558887645E+02  1.057000000E-01  0.00000E+00  9.000E+00
       2     1     1     2   501     0  4.183295977E+01 -3.198051216E+01  2.094426630E+01  5.667028209E+01  3.300000000E-01  0.00000E+00  9.000E+00
      -4     1     1     2     0   512 -1.444458169E+01  2.069504871E+01 -2.709655852E+01  3.705947200E+01  1.500000000E+00  0.00000E+00  9.000E+00
      21     1     1     2   512   502  8.074112156E+01 -5.088554650E+01  2.604198696E+01  9.892751204E+01  6.424042504E-06  0.00000E+00  9.000E+00
</event>
<event>
      8  10001  1.09885E-02  1.49256E+02 -1.00000E+00  1.18584E-01
       2    -1     0     0   501     0  0.000000000E+00  0.000000000E+00  1.802111147E+02  1.802111147E+02  0.000000000E+00  0.00000E+00  9.000E+00
      -2    -1     0     0     0   502  0.000000000E+00  0.000000000E+00 -1.545568918E+02  1.545568918E+02  0.000000000E+00  0.00000E+00  9.000E+00
      23     2     1     2     0     0 -2.571735693E+01 -4.099365640E+01  6.848810837E+01  1.238859744E+02  9.118800000E+01  0.00000E+00  9.000E+00
     -13     1     3     3     0     0 -4.754746544E+01 -4.678111088E+01  1.879272685E+01  6.929943405E+01  1.057000000E-01  0.00000E+00  9.000E+00
      13     1     3     3     0     0  2.183010851E+01  5.787454480E+00  4.969538152E+01  5.458654032E+01  1.057000000E-01  0.00000E+00  9.000E+00
       2     1     1     2   511     0 -1.090114224E+01  1.067655133E+01  5.677784219E+01  5.879333222E+01  3.300000000E-01  0.00000E+00  9.000E+00
      -2     1     1     2     0   502  6.813136781E+01  1.179383549E+01 -3.416432817E+01  7.712514542E+01  3.300000000E-01  0.00000E+00  9.000E+00
      21     1     1     2   501   511 -3.151286865E+01  1.852326958E+01 -6.544739943E+01  7.496355447E+01  2.336015456E-06  0.00000E+00  9.000E+00
</event>
<event>
      8  10001  1.65308E-02  1.22558E+02 -1.00000E+00  1.22218E-01
       1    -1     0     0   501     0  0.000000000E+00  0.000000000E+00  9.009529256E+02  9.009529256E+02  0.000000000E+00  0.00000E+00  9.000E+00
      21    -1     0     0   511   502  0.000000000E+00  0.000000000E+00 -2.707247498E+02  2.707247498E+02  0.000000000E+00  0.00000E+00  9.000E+00
      23     2     1     2     0     0  1.583421088E+01 -4.827264524E+01 -5.924141331E+01  1.200240264E+02  9.118800000E+01  0.00000E+00  9.000E+00
     -13     1     3     3     0     0 -3.244582646E+01  2.890961801E+00 -9.717182296E+00  3.399300104E+01  1.057000000E-01  0.00000E+00  9.000E+00
      13     1     3     3     0     0  4.828003734E+01 -5.116360704E+01 -4.952423101E+01  8.603102534E+01  1.057000000E-01  0.00000E+00  9.000E+00
       2     1     1     2   501     0 -9.251757931E+01 -4.137299372E+00  8.324042746E+02  8.375402110E+02  3.300000000E-01  0.00000E+00  9.000E+00
      -2     1     1     2     0   502 -3.611598292E+01  4.484728901E+00 -2.607882321E+01  4.477377509E+01  3.300000000E-01  0.00000E+00  9.000E+00
       1     1     1     2   511     0  1.127993514E+02  4.792521571E+01 -1.168558623E+02  1.693396629E+02  3.300000000E-01  0.00000E+00  9.000E+00
</event>
<event>
      8  10001  2.71900E-02  3.50792E+01 -1.00000E+00  1.51946E-01
       2    -1     0     0   501     0  0.000000000E+00  0.000000000E+00  1.684344932E+03  1.684344932E+03  0.000000000E+00  0.00000E+00  9.000E+00
       2    -1     0     0   502     0  0.000000000E+00  0.000000000E+00 -5.591950195E+01  5.591950195E+01  0.000000000E+00  0.00000E+00  9.000E+00
      23     2     1     2     0     0 -3.273677247E+00 -1.219239227E+01  1.547232627E+03  1.549968846E+03  9.118800000E+01  0.00000E+00  9.000E+00
     -13     1     3     3     0     0 -3.408797205E+01 -3.748153661E+01  1.002622139E+03  1.003901400E+03  1.057000000E-01  0.00000E+00  9.000E+00
      13     1     3     3     0     0  3.081429480E+01  2.528914434E+01  5.446104881E+02  5.460674469E+02  1.057000000E-01  0.00000E+00  9.000E+00
       2     1     1     2   511     0 -3.013243521E+00  1.766233317E+01  2.583443523E+01  3.144144706E+01  3.300000000E-01  0.00000E+00  9.000E+00
       2     1     1     2   502     0  6.658647183E+00 -2.711630652E+00 -5.147942609E+01  5.198009940E+01  3.300000000E-01  0.00000E+00  9.000E+00
      21     1     1     2   501   511 -3.717264139E-01 -2.758310247E+00  1.068377939E+02  1.068740411E+02  1.348699152E-06  0.00000E+00  9.000E+00
</event>
<event>
      8  10001  1.05266E-02  5.69530E+02 -1.00000E+00  9.87250E-02
       2    -1     0     0   501     0  0.000000000E+00  0.000000000E+00  1.536887297E+03  1.536887297E+03  0.000000000E+00  0.00000E+00  9.000E+00
       1    -1     0     0   502     0  0.000000000E+00  0.000000000E+00 -4.342621858E+02  4.342621858E+02  0.000000000E+00  0.00000E+00  9.000E+00
      23     2     1     2     0     0 -1.242706337E+02  2.022638890E+02  8.412631387E+02  8.788588004E+02  9.118800000E+01  0.00000E+00  9.000E+00
     -13     1     3     3     0     0 -7.176482435E+01  1.807715182E+02  5.885142618E+02  6.198206025E+02  1.057000000E-01  0.00000E+00  9.000E+00
      13     1     3     3     0     0 -5.250580936E+01  2.149237079E+01  2.527488769E+02  2.590381979E+02  1.057000000E-01  0.00000E+00  9.000E+00
       2     1     1     2   501     0  3.454684866E+02 -9.895044631E+01 -3.842298951E+01  3.614084962E+02  3.300000000E-01  0.00000E+00  9.000E+00
       1     1     1     2   511     0 -1.884705321E+00 -1.104905457E+02 -1.754971807E+02  2.073911332E+02  3.300000000E-01  0.00000E+00  9.000E+00
      21     1     1     2   502   511 -2.193131476E+02  7.177103098E+00  4.752821430E+02  5.234910533E+02  0.000000000E+00  0.00000E+00  9.000E+00
</event>
<event>
      8  10001  1.13243E-02  1.45979E+02 -1.00000E+00  1.18982E-01
       2    -1     0     0   501     0  0.000000000E+00  0.000000000E+00  6.944263918E+02  6.944263918E+02  0.000000000E+00  0.00000E+00  9.000E+00
       1    -1     0     0   502     0  0.000000000E+00  0.000000000E+00 -1.448070199E+02  1.448070199E+02  0.000000000E+00  0.00000E+00  9.000E+00
      23     2     1     2     0     0 -9.424085211E+01  1.080447712E+02  6.301520678E+02  6.526575600E+02  9.118800000E+01  0.00000E+00  9.000E+00
     -13     1     3     3     0     0 -6.757298958E+01  4.749142755E+01  4.986944280E+02  5.054875748E+02  1.057000000E-01  0.00000E+00  9.000E+00
      13     1     3     3     0     0 -2.666786252E+01  6.055334361E+01  1.314576398E+02  1.471699852E+02  1.057000000E-01  0.00000E+00  9.000E+00
       1     1     1     2   512     0  1.803422108E-01  8.541401083E+00  2.626653451E+00  8.944063066E+00  3.300000000E-01  0.00000E+00  9.000E+00
       2     1     1     2   502     0  4.637719406E+01 -7.055470306E+01 -7.085187280E+01  1.102220805E+02  3.300000000E-01  0.00000E+00  9.000E+00
      21     1     1     2   501   512  4.768331583E+01 -4.603146919E+01 -1.230747652E+01  6.740970807E+01  2.242909398E-06  0.00000E+00  9.000E+00
</event>
<event>
      8  10001  1.85496E-02  9.65652E+01 -1.00000E+00  1.26930E-01
       1    -1     0     0   501     0  0.000000000E+00  0.000000000E+00  7.441730198E+01  7.441730198E+01  0.000000000E+00  0.00000E+00  9.000E+00
       2    -1     0     0   502     0  0.000000000E+00  0.000000000E+00 -7.984735009E+02  7.984735009E+02  0.000000000E+00  0.00000E+00  9.000E+00
      23     2     1     2     0     0 -6.437531586E+01 -5.348019416E+00  9.447776231E-01  1.117538659E+02  9.118800000E+01  0.00000E+00  9.000E+00
     -13     1     3     3     0     0 -7.200648638E+01  9.939515285E+00  2.952393940E+01  7.845637142E+01  1.057000000E-01  0.00000E+00  9.000E+00
      13     1     3     3     0     0  7.631170526E+00 -1.528753470E+01 -2.857916178E+01  3.329749452E+01  1.057000000E-01  0.00000E+00  9.000E+00
       2     1     1     2   511     0  5.391984778E+00 -3.980828137E+00 -2.414699149E+01  2.506205480E+01  3.300000000E-01  0.00000E+00  9.000E+00
       1     1     1     2   502     0  5.066921889E+01  1.228220671E+01 -7.163490541E+02  7.182438991E+02  3.300000000E-01  0.00000E+00  9.000E+00
      21     1     1     2   501   511  8.314112190E+00 -2.953359155E+00  1.549506906E+01  1.783098306E+01  2.268111419E-06  0.00000E+00  9.000E+00
</event>
<event>
      8  10001  1.18701E-02  4.36239E+01 -1.00000E+00  1.45739E-01
      -2    -1     0     0     0   501  0.000000000E+00  0.000000000E+00  6.965474252E+01  6.965474252E+01  0.000000000E+00  0.00000E+00  9.000E+00
       2    -1     0     0   502     0  0.000000000E+00  0.000000000E+00 -4.290214146E+02  4.290214146E+02  0.000000000E+00  0.00000E+00  9.000E+00
      23     2     1     2     0     0 -1.595603281E+01  1.251988848E+02 -1.880395531E+02  2.441382408E+02  9.118800000E+01  0.00000E+00  9.000E+00
     -13     1     3     3     0     0 -5.282805513E+01  5.674332451E+01 -8.487733049E+01  1.149555596E+02  1.057000000E-01  0.00000E+00  9.000E+00
      13     1     3     3     0     0  3.687202232E+01  6.845556029E+01 -1.031622226E+02  1.291826811E+02  1.057000000E-01  0.00000E+00  9.000E+00
      -2     1     1     2     0   511 -2.635640814E+00 -6.453219876E+00  2.279279921E+01  2.383718198E+01  3.300000000E-01  0.00000E+00  9.000E+00
       2     1     1     2   502     0  2.744092031E+01 -9.654981923E+01 -1.492045306E+02  1.798248386E+02  3.300000000E-01  0.00000E+00  9.000E+00
      21     1     1     2   511   501 -8.849246691E+00 -2.219584568E+01 -4.491538756E+01  5.087589579E+01  1.168007728E-06  0.00000E+00  9.000E+00
</event>
<event>
      8  10001  1.05375E-02  4.24947E+02 -1.00000E+00  1.02468E-01
      -2    -1     0     0     0   501  0.000000000E+00  0.000000000E+00  5.001859683E+02  5.001859683E+02  0.000000000E+00  0.00000E+00  9.000E+00
      -3    -1     0     0     0   502  0.000000000E+00  0.000000000E+00 -4.305568330E+02  4.305568330E+02  0.000000000E+00  0.00000E+00  9.000E+00
      23     2     1     2     0     0 -6.378931620E+01  1.803468507E+01 -5.892235419E+01  1.272062180E+02  9.118800000E+01  0.00000E+00  9.000E+00
     -13     1     3     3     0     0 -5.528549452E+01 -1.379505786E+01 -7.194785832E+01  9.177851063E+01  1.057000000E-01  0.00000E+00  9.000E+00
      13     1     3     3     0     0 -8.503821681E+00  3.182974292E+01  1.302550413E+01  3.542770735E+01  1.057000000E-01  0.00000E+00  9.000E+00
      -2     1     1     2     0   501 -7.097641909E+01 -2.145404002E+02  9.970439812E+01  2.469945572E+02  3.300000000E-01  0.00000E+00  9.000E+00
      -3     1     1     2     0   511  9.686418471E+01  2.224947858E+02  2.394905958E+02  3.409436837E+02  5.000000000E-01  0.00000E+00  9.000E+00
      21     1     1     2   511   502  3.790155058E+01 -2.598907073E+01 -2.106435044E+02  2.155983425E+02  8.529922400E-06  0.00000E+00  9.000E+00
</event>
<event>
      8  10001  3.50315E-02  8.28149E+01 -1.00000E+00  1.30169E-01
       2    -1     0     0   501     0  0.000000000E+00  0.000000000E+00  1.077896253E+02  1.077896253E+02  0.000000000E+00  0.00000E+00  9.000E+00
       4    -1     0     0   502     0  0.000000000E+00  0.000000000E+00 -2.446925577E+02  2.446925577E+02  0.000000000E+00  0.00000E+00  9.000E+00
      23     2     1     2     0     0 -1.057006964E+01 -5.517455971E+00  3.332956491E+01  9.781758499E+01  9.118800000E+01  0.00000E+00  9.000E+00
     -13     1     3     3     0     0  4.280291485E+00 -2.215938069E+01 -2.600275779E+01  3.443128858E+01  1.057000000E-01  0.00000E+00  9.000E+00
      13     1     3     3     0     0 -1.485036112E+01  1.664192472E+01  5.933232270E+01  6.338629641E+01  1.057000000E-01  0.00000E+00  9.000E+00
       2     1     1     2   512     0  1.233534908E-01 -2.928317056E+00 -1.302914863E+00  3.224398239E+00  3.300000000E-01  0.00000E+00  9.000E+00
       4     1     1     2   502     0 -1.232888841E+00  1.670640171E+01 -2.085960099E+02  2.092729539E+02  1.500000000E+00  0.00000E+00  9.000E+00
      21     1     1     2   501   512  1.167960499E+01 -8.260628687E+00  3.966642745E+01  4.216724588E+01  1.066240300E-06  0.00000E+00  9.000E+00
</event>
<event>
      8  10001  2.45569E-02  9.14478E+01 -1.00000E+00  1.28059E-01
      -2    -1     0     0     0   501  0.000000000E+00  0.000000000E+00  1.511600048E+02  1.511600048E+02  0.000000000E+00  0.00000E+00  9.000E+00
      -1    -1     0     0     0   502  0.000000000E+00  0.000000000E+00 -2.971031751E+02  2.971031751E+02  0.000000000E+00  0.00000E+00  9.000E+00
      23     2     1     2     0     0 -3.762435621E+01  4.665918540E+01 -1.995686699E+02  2.274545605E+02  9.118800000E+01  0.00000E+00  9.000E+00
     -13     1     3     3     0     0 -5.290837107E+01  6.175308364E+01 -1.194258112E+02  1.444827831E+02  1.057000000E-01  0.00000E+00  9.000E+00
      13     1     3     3     0     0  1.528401486E+01 -1.509389824E+01 -8.014285865E+01  8.297177736E+01  1.057000000E-01  0.00000E+00  9.000E+00
      -2     1     1     2     0   501  2.699419398E+01 -4.762229784E+01  1.242065167E+02  1.357348056E+02  3.300000000E-01  0.00000E+00  9.000E+00
      -1     1     1     2     0   511  5.799409101E+00  1.057689191E+01  1.530842708E+00  1.216372344E+01  3.300000000E-01  0.00000E+00  9.000E+00
      21     1     1     2   511   502  4.830753136E+00 -9.613779466E+00 -7.211185989E+01  7.291009031E+01  2.132480600E-06  0.00000E+00  9.000E+00
</event>
<event>
      8  10001  1.22335E-02  5.03092E+01 -1.00000E+00  1.41953E-01
      -3    -1     0     0     0   501  0.000000000E+00  0.000000000E+00  7.506137607E+01  7.506137607E+01  0.000000000E+00  0.00000E+00  9.000E+00
       3    -1     0     0   502     0  0.000000000E+00  0.000000000E+00 -2.890679357E+02  2.890679357E+02  0.000000000E+00  0.00000E+00  9.000E+00
      23     2     1     2     0     0  8.613581656E+01  4.686801550E+01 -1.372381354E+02  1.917434404E+02  9.118800000E+01  0.00000E+00  9.000E+00
     -13     1     3     3     0     0  3.712839119E+01 -2.452226928E+01 -6.607750430E+01  7.966245583E+01  1.057000000E-01  0.00000E+00  9.000E+00
      13     1     3     3     0     0  4.900742538E+01  7.139028478E+01 -7.116063115E+01  1.120809846E+02  1.057000000E-01  0.00000E+00  9.000E+00
      -4     1     1     2     0   501 -7.281637183E+01 -6.526722007E+01 -6.268377876E+01  1.161616983E+02  1.500000000E+00  0.00000E+00  9.000E+00
       4     1     1     2   512     0 -1.089045048E+00  2.900116922E+01 -2.361086518E+01  3.744298052E+01  1.500000000E+00  0.00000E+00  9.000E+00
      21     1     1     2   502   512 -1.223039969E+01 -1.060196465E+01  9.526219786E+00  1.878119257E+01  4.460403188E-07  0.00000E+00  9.000E+00
</event>
<event>
      8  10001  1.09034E-02  1.03084E+02 -1.00000E+00  1.25602E-01
       1    -1     0     0   501     0  0.000000000E+00  0.000000000E+00  2.284141865E+03  2.284141865E+03  0.000000000E+00  0.00000E+00  9.000E+00
       4    -1     0     0   502     0  0.000000000E+00  0.000000000E+00 -3.479990026E+01  3.479990026E+01  0.000000000E+00  0.00000E+00  9.000E+00
      23     2     1     2     0     0  1.334394051E+02 -3.882930052E+01  1.713108294E+03  1.721153412E+03  9.118800000E+01  0.00000E+00  9.000E+00
     -13     1     3     3     0     0 -6.486618932E-01 -3.519001916E+00  5.203796820E+02  5.203919952E+02  1.057000000E-01  0.00000E+00  9.000E+00
      13     1     3     3     0     0  1.340880670E+02 -3.531029860E+01  1.192728612E+03  1.200761417E+03  1.057000000E-01  0.00000E+00  9.000E+00
       2     1     1     2   511     0  1.494994006E+01  3.363147142E+01  2.994922652E+02  3.017454265E+02  3.300000000E-01  0.00000E+00  9.000E+00
       3     1     1     2   502     0 -1.530018498E+02 -3.719336928E+00  2.407117287E+02  2.852468858E+02  5.000000000E-01  0.00000E+00  9.000E+00
      21     1     1     2   501   511  4.612504651E+00  8.917166020E+00 -3.970322678E+00  1.079604146E+01  1.393398014E-06  0.00000E+00  9.000E+00
</event>
<event>
      8  10001  1.10499E-02  8.22261E+01 -1.00000E+00  1.30323E-01
       2    -1     0     0   501     0  0.000000000E+00  0.000000000E+00  4.820969946E+01  4.820969946E+01  0.000000000E+00  0.00000E+00  9.000E+00
      -1    -1     0     0     0   502  0.000000000E+00  0.000000000E+00 -7.569437352E+02  7.569437352E+02  0.000000000E+00  0.00000E+00  9.000E+00
      23     2     1     2     0     0  6.090645053E+00 -1.257379720E+02 -3.105985639E+02  3.473238443E+02  9.118800000E+01  0.00000E+00  9.000E+00
     -13     1     3     3     0     0  3.354458712E+01 -8.894502870E+01 -2.692594114E+02  2.855470176E+02  1.057000000E-01  0.00000E+00  9.000E+00
      13     1     3     3     0     0 -2.745394207E+01 -3.679294333E+01 -4.133915249E+01  6.177682669E+01  1.057000000E-01  0.00000E+00  9.000E+00
       2     1     1     2   501     0  3.054842367E+01  1.289899454E+02 -1.857226715E+02  2.281767556E+02  3.300000000E-01  0.00000E+00  9.000E+00
      -1     1     1     2     0   511  4.979717797E+00 -5.602390601E+00 -1.700661392E+02  1.702315628E+02  3.300000000E-01  0.00000E+00  9.000E+00
      21     1     1     2   511   502 -4.161878652E+01  2.350417254E+00 -4.234666116E+01  5.942127198E+01  1.261592536E-06  0.00000E+00  9.000E+00
</event>
<event>
      8  10001  1.24854E-01  2.81465E+01 -1.00000E+00  1.58795E-01
      -4    -1     0     0     0   501  0.000000000E+00  0.000000000E+00  1.008493326E+02  1.008493326E+02  0.000000000E+00  0.00000E+00  9.000E+00
       2    -1     0     0   502     0  0.000000000E+00  0.000000000E+00 -1.024426024E+02  1.024426024E+02  0.000000000E+00  0.00000E+00  9.000E+00
      23     2     1     2     0     0 -1.201129666E+00  2.944555591E+00  5.811907472E+01  1.081812891E+02  9.118800000E+01  0.00000E+00  9.000E+00
     -13     1     3     3     0     0 -7.746650672E-01  1.601798957E+01  8.059550810E+01  8.217556324E+01  1.057000000E-01  0.00000E+00  9.000E+00
      13     1     3     3     0     0 -4.264645991E-01 -1.307343397E+01 -2.247643337E+01  2.600572586E+01  1.057000000E-01  0.00000E+00  9.000E+00
      -4     1     1     2     0   512  3.069298640E+00  4.408250650E+00 -7.646496516E-01  5.629205719E+00  1.500000000E+00  0.00000E+00  9.000E+00
       2     1     1     2   502     0 -7.395680233E+00  1.789228663E+00 -7.212025780E+01  7.252129281E+01  3.300000000E-01  0.00000E+00  9.000E+00
      21     1     1     2   512   501  5.527511259E+00 -9.142034904E+00  1.317256299E+01  1.696014736E+01  4.460403188E-07  0.00000E+00  9.000E+00
</event>
<event>
      8  10001  1.11889E-02  2.10574E+02 -1.00000E+00  1.12740E-01
       1    -1     0     0   501     0  0.000000000E+00  0.000000000E+00  9.657734615E+02  9.657734615E+02  0.000000000E+00  0.00000E+00  9.000E+00
       4    -1     0     0   502     0  0.000000000E+00  0.000000000E+00 -7.102063250E+01  7.102063250E+01  0.000000000E+00  0.00000E+00  9.000E+00
      23     2     1     2     0     0 -5.659780284E-01  4.183774105E+01  3.597328105E+02  3.734617292E+02  9.118800000E+01  0.00000E+00  9.000E+00
     -13     1     3     3     0     0 -3.982003158E+01  2.665641072E+01  1.068849863E+02  1.171350102E+02  1.057000000E-01  0.00000E+00  9.000E+00
      13     1     3     3     0     0  3.925405355E+01  1.518133034E+01  2.528478242E+02  2.563267191E+02  1.057000000E-01  0.00000E+00  9.000E+00
       1     1     1     2   511     0  5.052794844E+01 -2.153088508E+01  6.683245605E+01  8.650629264E+01  3.300000000E-01  0.00000E+00  9.000E+00
       4     1     1     2   502     0 -6.960495760E+01  3.255913046E+00  5.156357931E+02  5.203248718E+02  1.500000000E+00  0.00000E+00  9.000E+00
      21     1     1     2   501   511  1.964298720E+01 -2.356276901E+01 -4.744823073E+01  5.650120024E+01  1.004758239E-05  0.00000E+00  9.000E+00
</event>
<event>
      8  10001  1.60936E-02  1.46156E+02 -1.00000E+00  1.18961E-01
      -4    -1     0     0     0   501  0.000000000E+00  0.000000000E+00  4.070613249E+01  4.070613249E+01  0.000000000E+00  0.00000E+00  9.000E+00
      21    -1     0     0   511   502  0.000000000E+00  0.000000000E+00 -2.374687107E+03  2.374687107E+03  0.000000000E+00  0.00000E+00  9.000E+00
      23     2     1     2     0     0  5.975622096E+01 -1.219569238E+02 -1.223772729E+03  1.234657540E+03  9.118800000E+01  0.00000E+00  9.000E+00
     -13     1     3     3     0     0  1.277199283E+01 -9.876778483E+01 -5.573066964E+02  5.661351113E+02  1.057000000E-01  0.00000E+00  9.000E+00
      13     1     3     3     0     0  4.698422813E+01 -2.318913900E+01 -6.664660329E+02  6.685224290E+02  1.057000000E-01  0.00000E+00  9.000E+00
      -4     1     1     2     0   501  5.010238063E+00  1.536015134E+01  4.511004483E+00  1.684149329E+01  1.500000000E+00  0.00000E+00  9.000E+00
      -4     1     1     2     0   502  2.779090975E+01 -6.508403465E+00  9.572113715E+00  3.014248400E+01  1.500000000E+00  0.00000E+00  9.000E+00
       4     1     1     2   511     0 -9.255736878E+01  1.131051759E+02 -1.124291363E+03  1.133751722E+03  1.500000000E+00  0.00000E+00  9.000E+00
</event>
<event>
      8  10001  1.41624E-02  2.99561E+01 -1.00000E+00  1.56793E-01
      -2    -1     0     0     0   501  0.000000000E+00  0.000000000E+00  6.975577329E+02  6.975577329E+02  0.000000000E+00  0.00000E+00  9.000E+00
       4    -1     0     0   502     0  0.000000000E+00  0.000000000E+00 -1.656220265E+01  1.656220265E+01  0.000000000E+00  0.00000E+00  9.000E+00
      23     2     1     2     0     0 -3.256674424E+01  6.295414066E+01  4.609162175E+02  4.751661052E+02  9.118800000E+01  0.00000E+00  9.000E+00
     -13     1     3     3     0     0  2.240852673E+01  2.774259549E+01  2.903623578E+02  2.925441910E+02  1.057000000E-01  0.00000E+00  9.000E+00
      13     1     3     3     0     0 -5.497527097E+01  3.521154517E+01  1.705538597E+02  1.826219142E+02  1.057000000E-01  0.00000E+00  9.000E+00
      -2     1     1     2     0   501  3.392090380E+01 -5.009061309E+01  1.192837451E+02  1.337475906E+02  3.300000000E-01  0.00000E+00  9.000E+00
       4     1     1     2   511     0 -1.051734405E+00 -4.578841750E+00  9.565682855E-01  5.023640106E+00  1.500000000E+00  0.00000E+00  9.000E+00
      21     1     1     2   502   511 -3.024251515E-01 -8.284685821E+00  9.983899939E+01  1.001825997E+02  1.348699152E-06  0.00000E+00  9.000E+00
</event>
<event>
      8  10001  1.14613E-02  2.79749E+02 -1.00000E+00  1.08341E-01
      -3    -1     0     0     0   501  0.000000000E+00  0.000000000E+00  1.456436222E+02  1.456436222E+02  0.000000000E+00  0.00000E+00  9.000E+00
       3    -1     0     0   502     0  0.000000000E+00  0.000000000E+00 -1.191198273E+03  1.191198273E+03  0.000000000E+00  0.00000E+00  9.000E+00
      23     2     1     2     0     0  1.331245911E+02 -1.296221110E+01 -1.150028189E+03  1.161365689E+03  9.118800000E+01  0.00000E+00  9.000E+00
     -13     1     3     3     0     0  3.781615438E+01 -4.517812839E+01 -3.336561028E+02  3.388178433E+02  1.057000000E-01  0.00000E+00  9.000E+00
      13     1     3     3     0     0  9.530843672E+01  3.221591729E+01 -8.163720863E+02  8.225478454E+02  1.057000000E-01  0.00000E+00  9.000E+00
      -3     1     1     2     0   501 -6.083507311E+01 -8.939383903E+00  3.709541849E+01  7.181322147E+01  5.000000000E-01  0.00000E+00  9.000E+00
       3     1     1     2   512     0 -1.451988174E+00  1.302706381E-01 -1.740855413E+00  2.325041433E+00  5.000000000E-01  0.00000E+00  9.000E+00
      21     1     1     2   502   512 -7.083752981E+01  2.177132437E+01  6.911897488E+01  1.013379439E+02  5.560829062E-06  0.00000E+00  9.000E+00
</event>
<event>
      8  10001  1.22949E-02  1.25981E+02 -1.00000E+00  1.21697E-01
      -2    -1     0     0     0   501  0.000000000E+00  0.000000000E+00  1.422847682E+02  1.422847682E+02  0.000000000E+00  0.00000E+00  9.000E+00
       2    -1     0     0   502     0  0.000000000E+00  0.000000000E+00 -2.271037272E+03  2.271037272E+03  0.000000000E+00  0.00000E+00  9.000E+00
      23     2     1     2     0     0  5.071342973E+01  4.229949599E+01  9.461101041E+01  1.470632311E+02  9.118800000E+01  0.00000E+00  9.000E+00
     -13     1     3     3     0     0  9.324647623E+00  6.436228030E+01  6.268366667E+01  9.032555241E+01  1.057000000E-01  0.00000E+00  9.000E+00
      13     1     3     3     0     0  4.138878211E+01 -2.206278431E+01  3.192734373E+01  5.673767872E+01  1.057000000E-01  0.00000E+00  9.000E+00
      -2     1     1     2     0   511 -2.802655194E+01  5.536584509E+00 -8.982103772E+01  9.425533989E+01  3.300000000E-01  0.00000E+00  9.000E+00
       2     1     1     2   502     0 -1.745334966E+01 -4.747713884E+01 -2.152112407E+03  2.152706812E+03  3.300000000E-01  0.00000E+00  9.000E+00
      21     1     1     2   511   501 -5.233528135E+00 -3.589416574E-01  1.856993046E+01  1.929665705E+01  1.283923342E-06  0.00000E+00  9.000E+00
</event>
<event>
      8  10001  1.05564E-02  2.98166E+02 -1.00000E+00  1.07401E-01
       2    -1     0     0   501     0  0.000000000E+00  0.000000000E+00  3.321382213E+02  3.321382213E+02  0.000000000E+00  0.00000E+00  9.000E+00
       3    -1     0     0   502     0  0.000000000E+00  0.000000000E+00 -4.562604853E+02  4.562604853E+02  0.000000000E+00  0.00000E+00  9.000E+00
      23     2     1     2     0     0  4.398323189E+01  1.473497008E+01 -1.042204133E+02  1.460437945E+02  9.118800000E+01  0.00000E+00  9.000E+00
     -13     1     3     3     0     0  1.538266879E+00  3.139968219E+01  9.094380901E-01  3.145066862E+01  1.057000000E-01  0.00000E+00  9.000E+00
      13     1     3     3     0     0  4.244496501E+01 -1.666471211E+01 -1.051298513E+02  1.145931259E+02  1.057000000E-01  0.00000E+00  9.000E+00
       1     1     1     2   501     0 -1.729648828E+02 -5.090947726E+01  1.036599077E+02  2.079762268E+02  3.300000000E-01  0.00000E+00  9.000E+00
       4     1     1     2   511     0  1.672211646E+02  4.517471167E+01 -2.487782462E+02  3.031444181E+02  1.500000000E+00  0.00000E+00  9.000E+00
      21     1     1     2   502   511 -3.823951373E+01 -9.000204483E+00  1.252164877E+02  1.312342671E+02  2.697398305E-06  0.00000E+00  9.000E+00
</event>
<event>
      8  10001  1.08385E-02  1.08293E+02 -1.00000E+00  1.24619E-01
       2    -1     0     0   501     0  0.000000000E+00  0.000000000E+00  7.200927379E+02  7.200927379E+02  0.000000000E+00  0.00000E+00  9.000E+00
       2    -1     0     0   502     0  0.000000000E+00  0.000000000E+00 -7.738191218E+01  7.738191218E+01  0.000000000E+00  0.00000E+00  9.000E+00
      23     2     1     2     0     0  2.756339379E+01  1.241460150E+02  3.957513204E+02  4.255658970E+02  9.118800000E+01  0.00000E+00  9.000E+00
     -13     1     3     3     0     0  1.185929805E+01 -1.284574250E+01  6.287370420E+01  6.525925147E+01  1.057000000E-01  0.00000E+00  9.000E+00
      13     1     3     3     0     0  1.570409574E+01  1.369917575E+02  3.328776162E+02  3.603066455E+02  1.057000000E-01  0.00000E+00  9.000E+00
       2     1     1     2   501     0 -7.316074383E+01 -7.544058606E+01  2.343828030E+01  1.076719014E+02  3.300000000E-01  0.00000E+00  9.000E+00
       2     1     1     2   512     0  8.058700862E+01 -3.895787375E-01  1.154641664E+02  1.408066062E+02  3.300000000E-01  0.00000E+00  9.000E+00
      21     1     1     2   502   512 -3.498965857E+01 -4.831585022E+01  1.080570586E+02  1.234302455E+02  3.568322551E-06  0.00000E+00  9.000E+00
</event>
<event>
      8  10001  1.13100E-02  1.00623E+02 -1.00000E+00  1.26090E-01
       4    -1     0     0   501     0  0.000000000E+00  0.000000000E+00  3.846418549E+01  3.846418549E+01  0.000000000E+00  0.00000E+00  9.000E+00
       2    -1     0     0   502     0  0.000000000E+00  0.000000000E+00 -6.084166222E+02  6.084166222E+02  0.000000000E+00  0.00000E+00  9.000E+00
      23     2     1     2     0     0  1.574581602E+01  7.500205716E+01 -2.505934837E+02  2.774627628E+02  9.118800000E+01  0.00000E+00  9.000E+00
     -13     1     3     3     0     0 -1.622085690E+00 -1.999477914E+01 -2.489551761E+01  3.197218048E+01  1.057000000E-01  0.00000E+00  9.000E+00
      13     1     3     3     0     0  1.736790171E+01  9.499683631E+01 -2.256979661E+02  2.454905823E+02  1.057000000E-01  0.00000E+00  9.000E+00
       4     1     1     2   501     0 -4.194291355E+01 -4.777804636E+01 -6.621547217E+01  9.180788891E+01  1.500000000E+00  0.00000E+00  9.000E+00
       2     1     1     2   511     0  4.282898727E+00 -3.612338371E+00 -2.440812054E+02  2.441457269E+02  3.300000000E-01  0.00000E+00  9.000E+00
      21     1     1     2   502   511  2.191419880E+01 -2.361167243E+01 -9.062275443E+00  3.346442918E+01  1.255947799E-06  0.00000E+00  9.000E+00
</event>
<event>
      8  10001  1.06264E-02  8.17491E+02 -1.00000E+00  9.44722E-02
       2    -1     0     0   501     0  0.000000000E+00  0.000000000E+00  7.916380941E+02  7.916380941E+02  0.000000000E+00  0.00000E+00  9.000E+00
       2    -1     0     0   502     0  0.000000000E+00  0.000000000E+00 -5.757155265E+02  5.757155265E+02  0.000000000E+00  0.00000E+00  9.000E+00
      23     2     1     2     0     0 -8.362767452E+01 -5.377596265E+00 -1.547063215E+02  1.981711476E+02  9.118800000E+01  0.00000E+00  9.000E+00
     -13     1     3     3     0     0 -8.775740541E+01 -3.457917502E+01 -1.160116663E+02  1.495185588E+02  1.057000000E-01  0.00000E+00  9.000E+00
      13     1     3     3     0     0  4.129730898E+00  2.920157875E+01 -3.869465522E+01  4.865258877E+01  1.057000000E-01  0.00000E+00  9.000E+00
       2     1     1     2   501     0  1.929945005E+02  1.012267828E+02  6.913288003E+02  7.248650618E+02  3.300000000E-01  0.00000E+00  9.000E+00
       2     1     1     2   512     0 -1.076465212E+01 -2.784944105E+01  4.806699319E+01  5.658633966E+01  3.300000000E-01  0.00000E+00  9.000E+00
      21     1     1     2   502   512 -9.860217383E+01 -6.799974550E+01 -3.687669044E+02  3.877310715E+02  1.321449896E-05  0.00000E+00  9.000E+00
</event>
<event>
      8  10001  1.05169E-02  2.50348E+02 -1.00000E+00  1.10018E-01
      21    -1     0     0   511   501  0.000000000E+00  0.000000000E+00  1.849912525E+03  1.849912525E+03  0.000000000E+00  0.00000E+00  9.000E+00
       1    -1     0     0   502     0  0.000000000E+00  0.000000000E+00 -8.754349753E+02  8.754349753E+02  0.000000000E+00  0.00000E+00  9.000E+00
      23     2     1     2     0     0 -6.887279297E+01  1.783881311E+01  4.301270522E+02  4.454056772E+02  9.118800000E+01  0.00000E+00  9.000E+00
     -13     1     3     3     0     0 -4.399637834E+01 -4.528212540E+00  6.424557265E+01  7.799801788E+01  1.057000000E-01  0.00000E+00  9.000E+00
      13     1     3     3     0     0 -2.487641462E+01  2.236702565E+01  3.658814796E+02  3.674076593E+02  1.057000000E-01  0.00000E+00  9.000E+00
      -2     1     1     2     0   501 -3.692551963E+02  5.538970206E+02  3.632050692E+02  7.583332649E+02  3.300000000E-01  0.00000E+00  9.000E+00
       2     1     1     2   502     0  6.213244128E+02 -4.011097358E+02 -4.339869727E+02  8.574834386E+02  3.300000000E-01  0.00000E+00  9.000E+00
       1     1     1     2   511     0 -1.831964234E+02 -1.706260979E+02  6.151324013E+02  6.641251199E+02  3.300000000E-01  0.00000E+00  9.000E+00
</event>
<event>
      8  10001  1.08403E-02  1.24426E+02 -1.00000E+00  1.21931E-01
       2    -1     0     0   501     0  0.000000000E+00  0.000000000E+00  4.523614405E+01  4.523614405E+01  0.000000000E+00  0.00000E+00  9.000E+00
       2    -1     0     0   502     0  0.000000000E+00  0.000000000E+00 -5.919621881E+02  5.919621881E+02  0.000000000E+00  0.00000E+00  9.000E+00
      23     2     1     2     0     0  4.007999977E+01 -7.507378679E+00 -2.081695719E+02  2.308951908E+02  9.118800000E+01  0.00000E+00  9.000E+00
     -13     1     3     3     0     0  6.950447294E+01 -2.637449798E-01 -1.406023501E+02  1.568437864E+02  1.057000000E-01  0.00000E+00  9.000E+00
      13     1     3     3     0     0 -2.942447316E+01 -7.243633699E+00 -6.756722177E+01  7.405140431E+01  1.057000000E-01  0.00000E+00  9.000E+00
       2     1     1     2   511     0  9.875753622E+00 -1.679471730E+00  1.090835583E+01  1.481392121E+01  3.300000000E-01  0.00000E+00  9.000E+00
       2     1     1     2   502     0 -9.970353145E+01  3.034863596E+01 -1.363228770E+02  1.715979883E+02  3.300000000E-01  0.00000E+00  9.000E+00
      21     1     1     2   501   511  4.974777806E+01 -2.116178555E+01 -2.131419510E+02  2.198912319E+02  2.697398305E-06  0.00000E+00  9.000E+00
</event>
<event>
      8  10001  1.18714E-02  2.70200E+01 -1.00000E+00  1.60136E-01
       2    -1     0     0   501     0  0.000000000E+00  0.000000000E+00  1.308406967E+03  1.308406967E+03  0.000000000E+00  0.00000E+00  9.000E+00
      -4    -1     0     0     0   502  0.000000000E+00  0.000000000E+00 -1.548746367E+01  1.548746367E+01  0.000000000E+00  0.00000E+00  9.000E+00
      23     2     1     2     0     0  3.094491729E+01 -1.010020195E+02  5.851577339E+02  6.015678023E+02  9.118800000E+01  0.00000E+00  9.000E+00
     -13     1     3     3     0     0  2.488601210E+01  9.612864883E+00  7.749713512E+01  8.196058744E+01  1.057000000E-01  0.00000E+00  9.000E+00
      13     1     3     3     0     0  6.058905187E+00 -1.106148844E+02  5.076605988E+02  5.196072149E+02  1.057000000E-01  0.00000E+00  9.000E+00
       1     1     1     2   511     0 -2.572131226E+00  4.857328829E+01  1.835573765E+02  1.898931267E+02  3.300000000E-01  0.00000E+00  9.000E+00
      -3     1     1     2     0   502 -2.975569403E+01  4.599947836E+01  5.228583081E+02  5.257208515E+02  5.000000000E-01  0.00000E+00  9.000E+00
      21     1     1     2   501   511  1.382907963E+00  6.429252890E+00  1.346084689E+00  6.712650083E+00  2.265172561E-06  0.00000E+00  9.000E+00
</event>
<event>
      8  10001  1.19272E-02  4.00852E+01 -1.00000E+00  1.48085E-01
      -3    -1     0     0     0   501  0.000000000E+00  0.000000000E+00  3.154459689E+01  3.154459689E+01  0.000000000E+00  0.00000E+00  9.000E+00
       1    -1     0     0   502     0  0.000000000E+00  0.000000000E+00 -5.782020184E+02  5.782020184E+02  0.000000000E+00  0.00000E+00  9.000E+00
      23     2     1     2     0     0 -2.621575888E+01 -5.047314601E+00 -1.519097474E+02  1.791774654E+02  9.118800000E+01  0.00000E+00  9.000E+00
     -13     1     3     3     0     0  2.725845274E+01  2.175524027E+01 -4.894776195E+01  6.010164971E+01  1.057000000E-01  0.00000E+00  9.000E+00
      13     1     3     3     0     0 -5.347421163E+01 -2.680255487E+01 -1.029619854E+02  1.190758157E+02  1.057000000E-01  0.00000E+00  9.000E+00
      -4     1     1     2     0   501 -2.625189504E+01  3.552732948E+01 -3.133933947E+02  3.164949020E+02  1.500000000E+00  0.00000E+00  9.000E+00
       2     1     1     2   511     0  5.011722407E+01 -2.687018803E+01 -8.881417524E+01  1.054599914E+02  3.300000000E-01  0.00000E+00  9.000E+00
      21     1     1     2   502   511  2.350429855E+00 -3.609826851E+00  7.459895834E+00  8.614256570E+00  1.062903076E-06  0.00000E+00  9.000E+00
</event>
<event>
      8  10001  1.08646E-02  2.39033E+02 -1.00000E+00  1.10733E-01
       2    -1     0     0   501     0  0.000000000E+00  0.000000000E+00  2.478976848E+03  2.478976848E+03  0.000000000E+00  0.00000E+00  9.000E+00
       3    -1     0     0   502     0  0.000000000E+00  0.000000000E+00 -3.109209325E+01  3.109209325E+01  0.000000000E+00  0.00000E+00  9.000E+00
      23     2     1     2     0     0 -1.497864278E+02  1.081983748E+02  7.374358916E+02  7.656825764E+02  9.118800000E+01  0.00000E+00  9.000E+00
     -13     1     3     3     0     0 -1.935776021E+01 -4.930788312E+00  2.045783689E+02  2.055513458E+02  1.057000000E-01  0.00000E+00  9.000E+00
      13     1     3     3     0     0 -1.304286675E+02  1.131291631E+02  5.328575227E+02  5.601312307E+02  1.057000000E-01  0.00000E+00  9.000E+00
       1     1     1     2   512     0 -1.920552784E+01  4.905874981E+00  9.415149951E+01  9.621607802E+01  3.300000000E-01  0.00000E+00  9.000E+00
       4     1     1     2   502     0  1.244301999E+02 -2.775274480E+01  1.453130738E+03  1.458713228E+03  1.500000000E+00  0.00000E+00  9.000E+00
      21     1     1     2   501   512  4.456175571E+01 -8.535150500E+01  1.631666259E+02  1.894570592E+02  7.136645101E-06  0.00000E+00  9.000E+00
</event>
<event>
      8  10001  1.17883E-02  1.07844E+02 -1.00000E+00  1.24701E-01
       4    -1     0     0   501     0  0.000000000E+00  0.000000000E+00  1.294827946E+02  1.294827946E+02  0.000000000E+00  0.00000E+00  9.000E+00
       3    -1     0     0   502     0  0.000000000E+00  0.000000000E+00 -1.971429349E+02  1.971429349E+02  0.000000000E+00  0.00000E+00  9.000E+00
      23     2     1     2     0     0  1.121993036E+01  7.088636928E+00  6.462093424E+01  1.125488876E+02  9.118800000E+01  0.00000E+00  9.000E+00
     -13     1     3     3     0     0  3.284706551E+01  2.303292414E+01 -2.554239479E+00  4.019926142E+01  1.057000000E-01  0.00000E+00  9.000E+00
      13     1     3     3     0     0 -2.162713515E+01 -1.594428721E+01  6.717517372E+01  7.234962616E+01  1.057000000E-01  0.00000E+00  9.000E+00
       3     1     1     2   511     0 -5.517392553E+01 -4.463432182E+01 -5.147366686E+00  7.115567529E+01  5.000000000E-01  0.00000E+00  9.000E+00
       4     1     1     2   502     0  2.475349825E+01  3.016752413E+01 -5.205195644E+01  6.507281580E+01  1.500000000E+00  0.00000E+00  9.000E+00
      21     1     1     2   501   511  1.920049691E+01  7.378160763E+00 -7.508175142E+01  7.784835088E+01  1.348699152E-06  0.00000E+00  9.000E+00
</event>
<event>
      8  10001  1.11141E-02  9.63826E+01 -1.00000E+00  1.26969E-01
       2    -1     0     0   501     0  0.000000000E+00  0.000000000E+00  3.701835219E+02  3.701835219E+02  0.000000000E+00  0.00000E+00  9.000E+00
       2    -1     0     0   502     0  0.000000000E+00  0.000000000E+00 -1.177382520E+02  1.177382520E+02  0.000000000E+00  0.00000E+00  9.000E+00
      23     2     1     2     0     0  4.850034438E+01  1.237565287E+00 -5.583687041E+01  1.174173003E+02  9.118800000E+01  0.00000E+00  9.000E+00
     -13     1     3     3     0     0  2.171393051E+00 -2.223601592E+01  1.691945721E+01  2.802560537E+01  1.057000000E-01  0.00000E+00  9.000E+00
      13     1     3     3     0     0  4.632895132E+01  2.347358120E+01 -7.275632761E+01  8.939169495E+01  1.057000000E-01  0.00000E+00  9.000E+00
       2     1     1     2   511     0 -2.942025601E+00  3.532330213E+00  3.491035012E+01  3.521326904E+01  3.300000000E-01  0.00000E+00  9.000E+00
       2     1     1     2   502     0 -8.342551010E+01 -3.987882505E+01  2.678456324E+02  2.833575976E+02  3.300000000E-01  0.00000E+00  9.000E+00
      21     1     1     2   501   511  3.786719133E+01  3.510892955E+01  5.526157736E+00  5.193360697E+01  7.562981570E-07  0.00000E+00  9.000E+00
</event>
<event>
      8  10001  1.75156E-02  2.58546E+01 -1.00000E+00  1.61610E-01
       1    -1     0     0   501     0  0.000000000E+00  0.000000000E+00  5.381811081E+02  5.381811081E+02  0.000000000E+00  0.00000E+00  9.000E+00
       2    -1     0     0   502     0  0.000000000E+00  0.000000000E+00 -4.573061188E+01  4.573061188E+01  0.000000000E+00  0.00000E+00  9.000E+00
      23     2     1     2     0     0  9.117812797E+00  5.847214638E+00  2.069728671E+01  9.413263754E+01  9.118800000E+01  0.00000E+00  9.000E+00
     -13     1     3     3     0     0 -2.069421926E+01 -3.519142278E+01  1.288584121E+01  4.281054805E+01  1.057000000E-01  0.00000E+00  9.000E+00
      13     1     3     3     0     0  2.981203206E+01  4.103863742E+01  7.811445502E+00  5.132208949E+01  1.057000000E-01  0.00000E+00  9.000E+00
       1     1     1     2   501     0 -1.110643156E+01 -2.642396012E+01  4.553607736E+02  4.562621194E+02  3.300000000E-01  0.00000E+00  9.000E+00
       2     1     1     2   511     0  7.846066628E+00  1.168508944E+01  1.788911212E+01  2.276469435E+01  3.300000000E-01  0.00000E+00  9.000E+00
      21     1     1     2   502   511 -5.857447863E+00  8.891656046E+00 -1.496676266E+00  1.075226872E+01  6.637292341E-07  0.00000E+00  9.000E+00
</event>
<event>
      8  10001  1.46597E-02  6.98026E+01 -1.00000E+00  1.33978E-01
       1    -1     0     0   501     0  0.000000000E+00  0.000000000E+00  2.602808939E+01  2.602808939E+01  0.000000000E+00  0.00000E+00  9.000E+00
       1    -1     0     0   502     0  0.000000000E+00  0.000000000E+00 -1.260180136E+03  1.260180136E+03  0.000000000E+00  0.00000E+00  9.000E+00
      23     2     1     2     0     0 -6.712574268E+00 -8.853655286E+00 -8.343026155E+02  8.393447155E+02  9.118800000E+01  0.00000E+00  9.000E+00
     -13     1     3     3     0     0 -2.390108559E+01 -4.345154255E+01 -5.810524004E+02  5.831648151E+02  1.057000000E-01  0.00000E+00  9.000E+00
      13     1     3     3     0     0  1.718851132E+01  3.459788727E+01 -2.532502151E+02  2.561799003E+02  1.057000000E-01  0.00000E+00  9.000E+00
       1     1     1     2   512     0  1.063263673E+01 -9.616163319E+00 -4.643277963E+01  4.859666126E+01  3.300000000E-01  0.00000E+00  9.000E+00
       1     1     1     2   502     0 -3.047043220E+00  3.450967303E+01  8.758652057E+00  3.573548504E+01  3.300000000E-01  0.00000E+00  9.000E+00
      21     1     1     2   501   512 -8.730192396E-01 -1.603985443E+01 -3.621753039E+02  3.625313639E+02  7.629394531E-06  0.00000E+00  9.000E+00
</event>
<event>
      8  10001  1.34953E-02  7.42238E+02 -1.00000E+00  9.55716E-02
      -2    -1     0     0     0   501  0.000000000E+00  0.000000000E+00  2.230500096E+02  2.230500096E+02  0.000000000E+00  0.00000E+00  9.000E+00
       1    -1     0     0   502     0  0.000000000E+00  0.000000000E+00 -1.083783530E+03  1.083783530E+03  0.000000000E+00  0.00000E+00  9.000E+00
      23     2     1     2     0     0 -8.395221520E+01 -7.623035063E+01 -2.064903822E+02  2.526115003E+02  9.118800000E+01  0.00000E+00  9.000E+00
     -13     1     3     3     0     0 -5.216941957E+00 -2.871426323E+01 -1.292839676E+02  1.325370924E+02  1.057000000E-01  0.00000E+00  9.000E+00
      13     1     3     3     0     0 -7.873527325E+01 -4.751608740E+01 -7.720641460E+01  1.200744079E+02  1.057000000E-01  0.00000E+00  9.000E+00
      -2     1     1     2     0   501  6.972613814E+00  3.143015985E+01  1.843032208E+02  1.870942500E+02  3.300000000E-01  0.00000E+00  9.000E+00
       1     1     1     2   511     0 -2.008526342E+01 -1.069928182E+01 -1.676178529E+00  2.282128201E+01  3.300000000E-01  0.00000E+00  9.000E+00
      21     1     1     2   502   511  9.706486481E+01  5.549947260E+01 -8.368701802E+02  8.443065071E+02  1.078959322E-05  0.00000E+00  9.000E+00
</event>
<event>
      8  10001  1.06815E-02  2.25519E+02 -1.00000E+00  1.11645E-01
       3    -1     0     0   501     0  0.000000000E+00  0.000000000E+00  3.259819885E+02  3.259819885E+02  0.000000000E+00  0.00000E+00  9.000E+00
       4    -1     0     0   502     0  0.000000000E+00  0.000000000E+00 -2.845744405E+02  2.845744405E+02  0.000000000E+00  0.00000E+00  9.000E+00
      23     2     1     2     0     0  1.321780902E+01  5.862210583E+01  1.532722504E+02  1.881990857E+02  9.118800000E+01  0.00000E+00  9.000E+00
     -13     1     3     3     0     0 -1.719302389E+01  3.694943491E+01  1.260389050E+01  4.265829391E+01  1.057000000E-01  0.00000E+00  9.000E+00
      13     1     3     3     0     0  3.041083291E+01  2.167267092E+01  1.406683599E+02  1.455407918E+02  1.057000000E-01  0.00000E+00  9.000E+00
       4     1     1     2   501     0  3.890379946E+01 -1.261526617E+02 -1.783276385E+02  2.218805903E+02  1.500000000E+00  0.00000E+00  9.000E+00
       3     1     1     2   512     0 -3.761573250E+01  1.113498807E+01 -5.395934243E+01  6.671425580E+01  5.000000000E-01  0.00000E+00  9.000E+00
      21     1     1     2   502   512 -1.450587598E+01  5.639556783E+01  1.204222785E+02  1.337624973E+02  0.000000000E+00  0.00000E+00  9.000E+00
</event>
<event>
      8  10001  1.05799E-02  4.51395E+02 -1.00000E+00  1.01673E-01
      -4    -1     0     0     0   501  0.000000000E+00  0.000000000E+00  2.433374197E+02  2.433374197E+02  0.000000000E+00  0.00000E+00  9.000E+00
       2    -1     0     0   502     0  0.000000000E+00  0.000000000E+00 -2.476820419E+03  2.476820419E+03  0.000000000E+00  0.00000E+00  9.000E+00
      23     2     1     2     0     0  1.278848049E+02  4.041420247E+02 -1.945881973E+03  1.993604074E+03  9.118800000E+01  0.00000E+00  9.000E+00
     -13     1     3     3     0     0  1.119568317E+02  3.627723941E+02 -1.576442060E+03  1.621514021E+03  1.057000000E-01  0.00000E+00  9.000E+00
      13     1     3     3     0     0  1.592797321E+01  4.136963057E+01 -3.694399129E+02  3.720900523E+02  1.057000000E-01  0.00000E+00  9.000E+00
      -3     1     1     2     0   501 -1.027647693E+02 -2.426894669E+02  4.574239450E+01  2.674909191E+02  5.000000000E-01  0.00000E+00  9.000E+00
       1     1     1     2   511     0 -1.169591246E+01  1.614269502E+01 -2.689341569E+02  2.696721539E+02  3.300000000E-01  0.00000E+00  9.000E+00
      21     1     1     2   502   511 -1.342412318E+01 -1.775952528E+02 -6.440926416E+01  1.893906920E+02  7.072638023E-06  0.00000E+00  9.000E+00
</event>
<event>
      8  10001  1.70818E-02  4.47902E+01 -1.00000E+00  1.45023E-01
       3    -1     0     0   501     0  0.000000000E+00  0.000000000E+00  1.706677792E+01  1.706677792E+01  0.000000000E+00  0.00000E+00  9.000E+00
       2    -1     0     0   502     0  0.000000000E+00  0.000000000E+00 -4.393891320E+02  4.393891320E+02  0.000000000E+00  0.00000E+00  9.000E+00
      23     2     1     2     0     0  3.110231621E+01 -4.063570133E+01 -2.733149294E+02  2.926344414E+02  9.118800000E+01  0.00000E+00  9.000E+00
     -13     1     3     3     0     0 -1.281023523E+01 -1.480019410E+01 -2.120548459E+02  2.129563728E+02  1.057000000E-01  0.00000E+00  9.000E+00
      13     1     3     3     0     0  4.391255144E+01 -2.583550723E+01 -6.126008348E+01  7.967806855E+01  1.057000000E-01  0.00000E+00  9.000E+00
       3     1     1     2   501     0 -2.531776378E+01  1.867213736E+01 -1.166846163E+02  1.208519241E+02  5.000000000E-01  0.00000E+00  9.000E+00
       2     1     1     2   512     0 -3.339125364E-01  2.915443343E+00 -1.868495546E+01  1.891686465E+01  3.300000000E-01  0.00000E+00  9.000E+00
      21     1     1     2   502   512 -5.450639900E+00  1.904812062E+01 -1.363785294E+01  2.405267983E+01  2.384185791E-07  0.00000E+00  9.000E+00
</event>
<event>
      8  10001  1.07476E-02  4.94618E+02 -1.00000E+00  1.00492E-01
       2    -1     0     0   501     0  0.000000000E+00  0.000000000E+00  2.655840176E+03  2.655840176E+03  0.000000000E+00  0.00000E+00  9.000E+00
       1    -1     0     0   502     0  0.000000000E+00  0.000000000E+00 -1.505253240E+02  1.505253240E+02  0.000000000E+00  0.00000E+00  9.000E+00
      23     2     1     2     0     0  5.644440953E+01  2.225541720E+02  1.606545802E+03  1.625429480E+03  9.118800000E+01  0.00000E+00  9.000E+00
     -13     1     3     3     0     0  6.028909364E+01  2.231694478E+02  1.408413990E+03  1.427259386E+03  1.057000000E-01  0.00000E+00  9.000E+00
      13     1     3     3     0     0 -3.844684112E+00 -6.152757646E-01  1.981318122E+02  1.981700944E+02  1.057000000E-01  0.00000E+00  9.000E+00
       1     1     1     2   501     0 -5.610283402E+00 -1.393764596E+02  3.608519806E+01  1.440816546E+02  3.300000000E-01  0.00000E+00  9.000E+00
       2     1     1     2   511     0  3.958231396E+01  6.553666851E+01 -6.039162608E+01  9.751447021E+01  3.300000000E-01  0.00000E+00  9.000E+00
      21     1     1     2   502   511 -9.041644009E+01 -1.487143810E+02  9.230754778E+02  9.393398945E+02  1.525878906E-05  0.00000E+00  9.000E+00
</event>
<event>
      8  10001  1.05920E-02  6.52271E+02 -1.00000E+00  9.70839E-02
       3    -1     0     0   501     0  0.000000000E+00  0.000000000E+00  4.540412386E+02  4.540412386E+02  0.000000000E+00  0.00000E+00  9.000E+00
       2    -1     0     0   502     0  0.000000000E+00  0.000000000E+00 -8.350077942E+02  8.350077942E+02  0.000000000E+00  0.00000E+00  9.000E+00
      23     2     1     2     0     0 -1.072121567E+02  2.544267588E+02 -1.253254555E+02  3.166214511E+02  9.118800000E+01  0.00000E+00  9.000E+00
     -13     1     3     3     0     0 -4.257119727E+00 -3.789258640E+00 -1.758953705E+01  1.849011995E+01  1.057000000E-01  0.00000E+00  9.000E+00
      13     1     3     3     0     0 -1.029550370E+02  2.582160174E+02 -1.077359184E+02  2.981313311E+02  1.057000000E-01  0.00000E+00  9.000E+00
       4     1     1     2   501     0  1.051355038E+02  5.885615359E+01 -2.142137307E+02  2.457789523E+02  1.500000000E+00  0.00000E+00  9.000E+00
       1     1     1     2   512     0 -2.123601800E+02 -2.840821583E+02 -2.437688294E+02  4.303752662E+02  3.300000000E-01  0.00000E+00  9.000E+00
      21     1     1     2   502   512  2.144368329E+02 -2.920075412E+01  2.023414599E+02  2.962733632E+02  2.697398305E-06  0.00000E+00  9.000E+00
</event>
<event>
      8  10001  1.13950E-02  9.77405E+01 -1.00000E+00  1.26682E-01
       1    -1     0     0   501     0  0.000000000E+00  0.000000000E+00  4.559255684E+01  4.559255684E+01  0.000000000E+00  0.00000E+00  9.000E+00
      -1    -1     0     0     0   502  0.000000000E+00  0.000000000E+00 -1.041019527E+03  1.041019527E+03  0.000000000E+00  0.00000E+00  9.000E+00
      23     2     1     2     0     0 -1.188610994E+02 -8.386817710E+00 -1.349660662E+02  2.018152374E+02  9.118800000E+01  0.00000E+00  9.000E+00
     -13     1     3     3     0     0 -5.804187387E+00  2.061176623E+01 -5.846110556E+01  6.225950156E+01  1.057000000E-01  0.00000E+00  9.000E+00
      13     1     3     3     0     0 -1.130569120E+02 -2.899858394E+01 -7.650496068E+01  1.395557358E+02  1.057000000E-01  0.00000E+00  9.000E+00
       2     1     1     2   511     0 -6.889576850E+00 -2.268565135E+01 -2.189893370E+01  3.227657422E+01  3.300000000E-01  0.00000E+00  9.000E+00
      -2     1     1     2     0   502  1.197655859E+02  4.002534814E+01 -5.734173690E+02  5.871570590E+02  3.300000000E-01  0.00000E+00  9.000E+00
      21     1     1     2   501   511  5.985090352E+00 -8.952879072E+00 -2.651446012E+02  2.653632131E+02  8.529922400E-06  0.00000E+00  9.000E+00
</event>
<event>
      8  10001  1.07894E-02  1.63874E+02 -1.00000E+00  1.16937E-01
      -2    -1     0     0     0   501  0.000000000E+00  0.000000000E+00  7.504503560E+01  7.504503560E+01  0.000000000E+00  0.00000E+00  9.000E+00
       2    -1     0     0   502     0  0.000000000E+00  0.000000000E+00 -7.223094477E+02  7.223094477E+02  0.000000000E+00  0.00000E+00  9.000E+00
      23     2     1     2     0     0  9.649905058E+01 -3.602791819E+00 -6.224536679E+01  1.466791870E+02  9.118800000E+01  0.00000E+00  9.000E+00
     -13     1     3     3     0     0  1.009754555E+02 -3.012755379E+01 -4.409363540E+01  1.142277198E+02  1.057000000E-01  0.00000E+00  9.000E+00
      13     1     3     3     0     0 -4.476404953E+00  2.652476197E+01 -1.815173140E+01  3.245146721E+01  1.057000000E-01  0.00000E+00  9.000E+00
      -1     1     1     2     0   511  5.584224340E+01  1.556255045E+00 -1.390027923E+01  5.756826157E+01  3.300000000E-01  0.00000E+00  9.000E+00
       1     1     1     2   502     0 -1.097483802E+02  1.555522421E+01 -3.369794551E+02  3.547420669E+02  3.300000000E-01  0.00000E+00  9.000E+00
      21     1     1     2   511   501 -4.259291380E+01 -1.350868744E+01 -2.341393109E+02  2.383649678E+02  2.697398305E-06  0.00000E+00  9.000E+00
</event>
<event>
      8  10001  1.08179E-02  3.57220E+02 -1.00000E+00  1.04826E-01
       2    -1     0     0   501     0  0.000000000E+00  0.000000000E+00  1.190690170E+03  1.190690170E+03  0.000000000E+00  0.00000E+00  9.000E+00
       2    -1     0     0   502     0  0.000000000E+00  0.000000000E+00 -1.227747734E+02  1.227747734E+02  0.000000000E+00  0.00000E+00  9.000E+00
      23     2     1     2     0     0 -3.497201644E+01  3.049778633E+00  6.224712998E+02  6.300937339E+02  9.118800000E+01  0.00000E+00  9.000E+00
     -13     1     3     3     0     0 -6.098098504E+01 -1.602471094E+01  4.728643525E+02  4.770494513E+02  1.057000000E-01  0.00000E+00  9.000E+00
      13     1     3     3     0     0  2.600896861E+01  1.907448957E+01  1.496069473E+02  1.530442826E+02  1.057000000E-01  0.00000E+00  9.000E+00
       2     1     1     2   511     0  5.807013032E+01  1.734799294E+02  1.271325024E+02  2.227783832E+02  3.300000000E-01  0.00000E+00  9.000E+00
       2     1     1     2   502     0 -5.381116651E+00 -1.212031364E+01 -5.272893028E+01  5.437193585E+01  3.300000000E-01  0.00000E+00  9.000E+00
      21     1     1     2   501   511 -1.771699723E+01 -1.644093944E+02  3.710405244E+02  4.062208902E+02  9.344061824E-06  0.00000E+00  9.000E+00
</event>
<event>
      8  10001  1.16433E-02  3.40726E+02 -1.00000E+00  1.05488E-01
       2    -1     0     0   501     0  0.000000000E+00  0.000000000E+00  6.830988780E+02  6.830988780E+02  0.000000000E+00  0.00000E+00  9.000E+00
       3    -1     0     0   502     0  0.000000000E+00  0.000000000E+00 -1.842023600E+02  1.842023600E+02  0.000000000E+00  0.00000E+00  9.000E+00
      23     2     1     2     0     0 -4.606011882E+01 -7.112950251E+01  1.564162899E+02  1.999055971E+02  9.118800000E+01  0.00000E+00  9.000E+00
     -13     1     3     3     0     0 -3.627170666E+01 -1.886736850E+01  7.220383265E+00  4.151818162E+01  1.057000000E-01  0.00000E+00  9.000E+00
      13     1     3     3     0     0 -9.788412165E+00 -5.226213402E+01  1.491959066E+02  1.583874155E+02  1.057000000E-01  0.00000E+00  9.000E+00
       2     1     1     2   501     0  4.039927253E+01  1.081905447E+02 -1.166292770E+02  1.641334589E+02  3.300000000E-01  0.00000E+00  9.000E+00
       3     1     1     2   511     0 -5.047502043E+01  5.389638757E+01  7.783793956E+01  1.072918595E+02  5.000000000E-01  0.00000E+00  9.000E+00
      21     1     1     2   502   511  5.613586672E+01 -9.095742978E+01  3.812715656E+02  3.959703225E+02  1.868812365E-05  0.00000E+00  9.000E+00
</event>
<event>
      8  10001  1.89095E-02  8.48725E+01 -1.00000E+00  1.29640E-01
       2    -1     0     0   501     0  0.000000000E+00  0.000000000E+00  3.691368498E+03  3.691368498E+03  0.000000000E+00  0.00000E+00  9.000E+00
       1    -1     0     0   502     0  0.000000000E+00  0.000000000E+00 -2.193017809E+01  2.193017809E+01  0.000000000E+00  0.00000E+00  9.000E+00
      23     2     1     2     0     0  1.482638826E+02  1.449818547E+02  1.275482670E+03  1.295443248E+03  9.118800000E+01  0.00000E+00  9.000E+00
     -13     1     3     3     0     0  2.375064047E+01  2.931178990E+01  8.640871974E+01  9.428548122E+01  1.057000000E-01  0.00000E+00  9.000E+00
      13     1     3     3     0     0  1.245132422E+02  1.156700648E+02  1.189073950E+03  1.201157767E+03  1.057000000E-01  0.00000E+00  9.000E+00
       1     1     1     2   512     0 -1.752154558E+01 -1.920268755E+01  7.335674480E+01  7.782717184E+01  3.300000000E-01  0.00000E+00  9.000E+00
       2     1     1     2   502     0 -1.476231818E+02 -1.587852124E+02  2.248764596E+03  2.259191816E+03  3.300000000E-01  0.00000E+00  9.000E+00
      21     1     1     2   501   512  1.688084475E+01  3.300604517E+01  7.183430988E+01  8.083643989E+01  2.336015456E-06  0.00000E+00  9.000E+00
</event>
<event>
      8  10001  1.08636E-02  3.02815E+02 -1.00000E+00  1.07176E-01
      -1    -1     0     0     0   501  0.000000000E+00  0.000000000E+00  7.027874838E+01  7.027874838E+01  0.000000000E+00  0.00000E+00  9.000E+00
       2    -1     0     0   502     0  0.000000000E+00  0.000000000E+00 -3.635974508E+03  3.635974508E+03  0.000000000E+00  0.00000E+00  9.000E+00
      23     2     1     2     0     0 -3.887360079E+01 -6.776065440E+00 -3.887391928E+02  4.012361939E+02  9.118800000E+01  0.00000E+00  9.000E+00
     -13     1     3     3     0     0  2.698661985E+01  1.122649986E+01 -8.393541031E+01  8.887899767E+01  1.057000000E-01  0.00000E+00  9.000E+00
      13     1     3     3     0     0 -6.586022064E+01 -1.800256530E+01 -3.048037825E+02  3.123571962E+02  1.057000000E-01  0.00000E+00  9.000E+00
      -1     1     1     2     0   501 -7.867156492E+01 -4.738979300E+01  2.647315444E+01  9.558213438E+01  3.300000000E-01  0.00000E+00  9.000E+00
       2     1     1     2   511     0  6.474496523E+01  3.580831526E+01 -5.016426467E+02  5.070696203E+02  3.300000000E-01  0.00000E+00  9.000E+00
      21     1     1     2   502   511  5.280020048E+01  1.835754318E+01 -2.701787075E+03  2.702365308E+03  5.285799584E-05  0.00000E+00  9.000E+00
</event>
<event>
      8  10001  1.10639E-02  2.33803E+02 -1.00000E+00  1.11078E-01
       3    -1     0     0   501     0  0.000000000E+00  0.000000000E+00  1.621494867E+02  1.621494867E+02  0.000000000E+00  0.00000E+00  9.000E+00
       2    -1     0     0   502     0  0.000000000E+00  0.000000000E+00 -4.542872683E+02  4.542872683E+02  0.000000000E+00  0.00000E+00  9.000E+00
      23     2     1     2     0     0 -1.474662653E+01  1.738607454E+02 -3.067291831E+02  3.644764257E+02  9.118800000E+01  0.00000E+00  9.000E+00
     -13     1     3     3     0     0 -2.968829499E+01  1.343532261E+02 -2.861045551E+02  3.174712772E+02  1.057000000E-01  0.00000E+00  9.000E+00
      13     1     3     3     0     0  1.494166846E+01  3.950751926E+01 -2.062462806E+01  4.700514854E+01  1.057000000E-01  0.00000E+00  9.000E+00
       4     1     1     2   501     0  1.674737408E-02 -7.768764738E+01 -2.532981921E+01  8.172649863E+01  1.500000000E+00  0.00000E+00  9.000E+00
       1     1     1     2   512     0 -5.917317134E+00 -4.998470707E+01 -4.751254274E+01  6.921731142E+01  3.300000000E-01  0.00000E+00  9.000E+00
      21     1     1     2   502   512  2.064719629E+01 -4.618839094E+01  8.743376348E+01  1.010165193E+02  1.651812370E-06  0.00000E+00  9.000E+00
</event>
<event>
      8  10001  1.07895E-02  3.42703E+02 -1.00000E+00  1.05406E-01
       1    -1     0     0   501     0  0.000000000E+00  0.000000000E+00  7.335433579E+02  7.335433579E+02  0.000000000E+00  0.00000E+00  9.000E+00
       3    -1     0     0   502     0  0.000000000E+00  0.000000000E+00 -1.058354858E+02  1.058354858E+02  0.000000000E+00  0.00000E+00  9.000E+00
      23     2     1     2     0     0 -1.045235496E+02 -1.367167581E+01  2.875579851E+02  3.195574022E+02  9.118800000E+01  0.00000E+00  9.000E+00
     -13     1     3     3     0     0 -9.732614283E+01 -1.475170549E+01  1.363297639E+02  1.681541156E+02  1.057000000E-01  0.00000E+00  9.000E+00
      13     1     3     3     0     0 -7.197406808E+00  1.080029675E+00  1.512282212E+02  1.514032866E+02  1.057000000E-01  0.00000E+00  9.000E+00
       1     1     1     2   511     0  2.071546296E+01 -3.900972071E+01  1.380775803E+02  1.449703963E+02  3.300000000E-01  0.00000E+00  9.000E+00
       3     1     1     2   502     0  7.249790287E+01  9.707748961E+01  2.682607106E+02  2.943536032E+02  5.000000000E-01  0.00000E+00  9.000E+00
      21     1     1     2   501   511  1.131018381E+01 -4.439609309E+01 -6.618840399E+01  8.049744196E+01  6.468133910E-06  0.00000E+00  9.000E+00
</event>
<event>
      8  10001  5.47464E-02  1.95380E+01 -1.00000E+00  1.71672E-01
       2    -1     0     0   501     0  0.000000000E+00  0.000000000E+00  1.421677226E+02  1.421677226E+02  0.000000000E+00  0.00000E+00  9.000E+00
      -3    -1     0     0     0   502  0.000000000E+00  0.000000000E+00 -2.516530741E+02  2.516530741E+02  0.000000000E+00  0.00000E+00  9.000E+00
      23     2     1     2     0     0 -4.210944924E+00 -1.120451539E+01 -2.320744733E+02  2.496339034E+02  9.118800000E+01  0.00000E+00  9.000E+00
     -13     1     3     3     0     0 -3.777736512E+01 -2.204515706E+01 -1.888212331E+02  1.938210192E+02  1.057000000E-01  0.00000E+00  9.000E+00
      13     1     3     3     0     0  3.356642020E+01  1.084064167E+01 -4.325324030E+01  5.581288422E+01  1.057000000E-01  0.00000E+00  9.000E+00
       2     1     1     2   501     0  3.411953044E-01 -9.556355316E+00  1.200696106E+02  1.204502413E+02  3.300000000E-01  0.00000E+00  9.000E+00
      -3     1     1     2     0   511  1.858921910E+00  1.623973705E+00  3.680165013E+00  4.459427742E+00  5.000000000E-01  0.00000E+00  9.000E+00
      21     1     1     2   511   502  2.010827710E+00  1.913689700E+01 -1.160653730E+00  1.927722418E+01  5.278882260E-07  0.00000E+00  9.000E+00
</event>
<event>
      8  10001  1.06023E-02  3.37835E+02 -1.00000E+00  1.05608E-01
       2    -1     0     0   501     0  0.000000000E+00  0.000000000E+00  1.112655940E+03  1.112655940E+03  0.000000000E+00  0.00000E+00  9.000E+00
      -2    -1     0     0     0   502  0.000000000E+00  0.000000000E+00 -9.030926954E+01  9.030926954E+01  0.000000000E+00  0.00000E+00  9.000E+00
      23     2     1     2     0     0  5.784604515E+01  1.118048579E+01  4.861554511E+02  4.981300454E+02  9.118800000E+01  0.00000E+00  9.000E+00
     -13     1     3     3     0     0  2.211537983E+01  1.816434878E+01  4.315663183E+02  4.325141984E+02  1.057000000E-01  0.00000E+00  9.000E+00
      13     1     3     3     0     0  3.573066533E+01 -6.983862993E+00  5.458913284E+01  6.561584704E+01  1.057000000E-01  0.00000E+00  9.000E+00
       1     1     1     2   512     0  3.076518362E+01 -1.194111487E-01  3.444447430E+02  3.458161371E+02  3.300000000E-01  0.00000E+00  9.000E+00
      -1     1     1     2     0   502 -3.681724953E+01  1.392533629E+02  8.087537445E+01  1.651906294E+02  3.300000000E-01  0.00000E+00  9.000E+00
      21     1     1     2   501   512 -5.179397924E+01 -1.503144375E+02  1.108711015E+02  1.938283972E+02  1.206313194E-05  0.00000E+00  9.000E+00
</event>
<event>
      8  10001  1.12162E-02  1.55110E+02 -1.00000E+00  1.17900E-01
      -1    -1     0     0     0   501  0.000000000E+00  0.000000000E+00  7.660473394E+02  7.660473394E+02  0.000000000E+00  0.00000E+00  9.000E+00
       1    -1     0     0   502     0  0.000000000E+00  0.000000000E+00 -4.015684581E+01  4.015684581E+01  0.000000000E+00  0.00000E+00  9.000E+00
      23     2     1     2     0     0  7.702461097E+01  1.469221089E+01  9.833934300E+01  1.553529191E+02  9.118800000E+01  0.00000E+00  9.000E+00
     -13     1     3     3     0     0  3.493924712E+01 -3.091730556E+01  7.642028308E+01  8.953603526E+01  1.057000000E-01  0.00000E+00  9.000E+00
      13     1     3     3     0     0  4.208536385E+01  4.560951645E+01  2.191905992E+01  6.581688386E+01  1.057000000E-01  0.00000E+00  9.000E+00
      -2     1     1     2     0   501 -2.659595287E+01 -6.887971043E+01  2.072445129E+02  2.200049005E+02  3.300000000E-01  0.00000E+00  9.000E+00
       2     1     1     2   511     0  2.454374112E+00  1.341398835E+01  1.583754929E+01  2.090205500E+01  3.300000000E-01  0.00000E+00  9.000E+00
      21     1     1     2   502   511 -5.288303221E+01  4.077351118E+01  4.044690884E+02  4.099443106E+02  7.629394531E-06  0.00000E+00  9.000E+00
</event>
<event>
      8  10001  1.15454E-02  2.89093E+02 -1.00000E+00  1.07855E-01
      -1    -1     0     0     0   501  0.000000000E+00  0.000000000E+00  4.889273516E+02  4.889273516E+02  0.000000000E+00  0.00000E+00  9.000E+00
       3    -1     0     0   502     0  0.000000000E+00  0.000000000E+00 -8.064951824E+01  8.064951824E+01  0.000000000E+00  0.00000E+00  9.000E+00
      23     2     1     2     0     0 -3.888772206E+01  1.192097117E+01 -3.856846226E+00  9.992242535E+01  9.118800000E+01  0.00000E+00  9.000E+00
     -13     1     3     3     0     0 -5.399809726E+01  5.679706888E+00  3.021077745E+01  6.213498068E+01  1.057000000E-01  0.00000E+00  9.000E+00
      13     1     3     3     0     0  1.511037520E+01  6.241264284E+00 -3.406762368E+01  3.778744466E+01  1.057000000E-01  0.00000E+00  9.000E+00
      -2     1     1     2     0   501 -9.836791633E+00  4.451806662E+01  5.726700251E+01  7.319999454E+01  3.300000000E-01  0.00000E+00  9.000E+00
       4     1     1     2   512     0  1.569560929E+01  4.303134402E+01  2.921076692E+01  5.434673516E+01  1.500000000E+00  0.00000E+00  9.000E+00
      21     1     1     2   502   512  3.302890440E+01 -9.947038181E+01  3.256569102E+02  3.421077148E+02  5.394796609E-06  0.00000E+00  9.000E+00
</event>
<event>
      8  10001  1.10296E-02  2.39827E+02 -1.00000E+00  1.10681E-01
       2    -1     0     0   501     0  0.000000000E+00  0.000000000E+00  4.043130953E+02  4.043130953E+02  0.000000000E+00  0.00000E+00  9.000E+00
       2    -1     0     0   502     0  0.000000000E+00  0.000000000E+00 -2.202603640E+02  2.202603640E+02  0.000000000E+00  0.00000E+00  9.000E+00
      23     2     1     2     0     0 -6.128014336E+01 -3.712745087E+01  6.922517112E+01  1.350595396E+02  9.118800000E+01  0.00000E+00  9.000E+00
     -13     1     3     3     0     0 -4.128169584E+01 -2.052934964E+01  9.043810509E+01  1.015120418E+02  1.057000000E-01  0.00000E+00  9.000E+00
      13     1     3     3     0     0 -1.999844753E+01 -1.659810123E+01 -2.121293398E+01  3.354749779E+01  1.057000000E-01  0.00000E+00  9.000E+00
       2     1     1     2   511     0  2.754947083E+01  1.074301580E+01  7.023455282E+00  3.039446587E+01  3.300000000E-01  0.00000E+00  9.000E+00
       2     1     1     2   502     0 -4.394276487E+01 -5.160520860E+01 -1.577294025E+02  1.716762577E+02  3.300000000E-01  0.00000E+00  9.000E+00
      21     1     1     2   501   511  7.767343741E+01  7.798964367E+01  2.655335074E+02  2.874431961E+02  0.000000000E+00  0.00000E+00  9.000E+00
</event>
<event>
      8  10001  1.48219E-02  1.73146E+02 -1.00000E+00  1.15989E-01
       1    -1     0     0   501     0  0.000000000E+00  0.000000000E+00  7.007554098E+02  7.007554098E+02  0.000000000E+00  0.00000E+00  9.000E+00
      -1    -1     0     0     0   502  0.000000000E+00  0.000000000E+00 -3.919202393E+01  3.919202393E+01  0.000000000E+00  0.00000E+00  9.000E+00
      23     2     1     2     0     0  9.641796009E+00 -4.827596318E+01  4.949327808E+01  1.148406233E+02  9.118800000E+01  0.00000E+00  9.000E+00
     -13     1     3     3     0     0  5.514687973E+00 -5.095359988E+01 -1.241789417E+01  5.273420514E+01  1.057000000E-01  0.00000E+00  9.000E+00
      13     1     3     3     0     0  4.127108036E+00  2.677636700E+00  6.191117226E+01  6.210641820E+01  1.057000000E-01  0.00000E+00  9.000E+00
       2     1     1     2   501     0  1.032768146E+01  5.315483936E+01  2.421469332E+02  2.481276770E+02  3.300000000E-01  0.00000E+00  9.000E+00
      -2     1     1     2     0   511 -2.442645974E+00 -3.536275728E+00 -1.921354278E+00  4.719350341E+00  3.300000000E-01  0.00000E+00  9.000E+00
      21     1     1     2   511   502 -1.752683150E+01 -1.342600454E+00  3.718445289E+02  3.722597831E+02  1.078959322E-05  0.00000E+00  9.000E+00
</event>
<event>
      8  10001  2.21298E-02  1.30336E+02 -1.00000E+00  1.21059E-01
       2    -1     0     0   501     0  0.000000000E+00  0.000000000E+00  4.629811331E+01  4.629811331E+01  0.000000000E+00  0.00000E+00  9.000E+00
       2    -1     0     0   502     0  0.000000000E+00  0.000000000E+00 -1.486128473E+03  1.486128473E+03  0.000000000E+00  0.00000E+00  9.000E+00
      23     2     1     2     0     0  3.335828103E+00 -4.716182565E+00 -2.970347217E+01  9.607766510E+01  9.118800000E+01  0.00000E+00  9.000E+00
     -13     1     3     3     0     0  4.277486777E+01  1.645889648E+01 -8.783389329E+00  4.666630141E+01  1.057000000E-01  0.00000E+00  9.000E+00
      13     1     3     3     0     0 -3.943903967E+01 -2.117507905E+01 -2.092008284E+01  4.941136369E+01  1.057000000E-01  0.00000E+00  9.000E+00
       2     1     1     2   512     0 -6.604927416E+00 -1.024439589E+01 -7.081289216E+01  7.185504373E+01  3.300000000E-01  0.00000E+00  9.000E+00
       2     1     1     2   502     0  1.590408067E+01  3.322419063E+00 -1.345972341E+03  1.346070440E+03  3.300000000E-01  0.00000E+00  9.000E+00
      21     1     1     2   501   512 -1.263498136E+01  1.163815939E+01  6.658344998E+00  1.842343796E+01  2.167184229E-06  0.00000E+00  9.000E+00
</event>
<event>
      8  10001  1.05472E-02  4.65628E+02 -1.00000E+00  1.01269E-01
       1    -1     0     0   501     0  0.000000000E+00  0.000000000E+00  2.751711436E+02  2.751711436E+02  0.000000000E+00  0.00000E+00  9.000E+00
       2    -1     0     0   502     0  0.000000000E+00  0.000000000E+00 -1.686173731E+03  1.686173731E+03  0.000000000E+00  0.00000E+00  9.000E+00
      23     2     1     2     0     0  1.913430598E+02 -1.329592921E+02 -9.582916507E+02  9.904183354E+02  9.118800000E+01  0.00000E+00  9.000E+00
     -13     1     3     3     0     0  1.081577953E+02 -1.169502592E+02 -7.230296815E+02  7.403697747E+02  1.057000000E-01  0.00000E+00  9.000E+00
      13     1     3     3     0     0  8.318526444E+01 -1.600903288E+01 -2.352619692E+02  2.500485607E+02  1.057000000E-01  0.00000E+00  9.000E+00
       2     1     1     2   511     0  7.148289872E+01  5.461394245E+01  2.071562313E+01  9.231323557E+01  3.300000000E-01  0.00000E+00  9.000E+00
       1     1     1     2   502     0 -2.258302043E+02 -1.123304205E+02  1.014104721E+02  2.718484822E+02  3.300000000E-01  0.00000E+00  9.000E+00
      21     1     1     2   501   511 -3.699575423E+01  1.906757702E+02 -5.748370321E+02  6.067648215E+02  7.629394531E-06  0.00000E+00  9.000E+00
</event>
<event>
      8  10001  1.33511E-02  6.28604E+01 -1.00000E+00  1.36427E-01
       3    -1     0     0   501     0  0.000000000E+00  0.000000000E+00  3.674403359E+01  3.674403359E+01  0.000000000E+00  0.00000E+00  9.000E+00
       2    -1     0     0   502     0  0.000000000E+00  0.000000000E+00 -1.060965167E+03  1.060965167E+03  0.000000000E+00  0.00000E+00  9.000E+00
      23     2     1     2     0     0  1.145663389E+01 -5.049266165E+01 -8.928544903E+02  8.989911877E+02  9.118800000E+01  0.00000E+00  9.000E+00
     -13     1     3     3     0     0  3.566452673E+01 -5.461609338E+01 -8.087147878E+02  8.113411708E+02  1.057000000E-01  0.00000E+00  9.000E+00
      13     1     3     3     0     0 -2.420789283E+01  4.123431738E+00 -8.413970248E+01  8.765001694E+01  1.057000000E-01  0.00000E+00  9.000E+00
       3     1     1     2   511     0  6.213262735E+00 -6.691352544E+00 -3.794026820E+00  9.900680390E+00  5.000000000E-01  0.00000E+00  9.000E+00
       2     1     1     2   502     0 -2.268552485E+01  3.145031972E+01  1.667038877E+01  4.221097499E+01  3.300000000E-01  0.00000E+00  9.000E+00
      21     1     1     2   501   511  5.015628220E+00  2.573369447E+01 -1.442430054E+02  1.466063579E+02  3.814697266E-06  0.00000E+00  9.000E+00
</event>
<event>
      8  10001  1.06074E-02  1.44866E+02 -1.00000E+00  1.19120E-01
       2    -1     0     0   501     0  0.000000000E+00  0.000000000E+00  1.496941825E+03  1.496941825E+03  0.000000000E+00  0.00000E+00  9.000E+00
       1    -1     0     0   502     0  0.000000000E+00  0.000000000E+00 -1.886051687E+02  1.886051687E+02  0.000000000E+00  0.00000E+00  9.000E+00
      23     2     1     2     0     0  2.968654614E+02 -2.025918904E+02  2.378818057E+02  4.405401015E+02  9.118800000E+01  0.00000E+00  9.000E+00
     -13     1     3     3     0     0  2.345275881E+02 -1.784175268E+02  1.516134463E+02  3.313950086E+02  1.057000000E-01  0.00000E+00  9.000E+00
      13     1     3     3     0     0  6.233787331E+01 -2.417436360E+01  8.626835945E+01  1.091450930E+02  1.057000000E-01  0.00000E+00  9.000E+00
       1     1     1     2   501     0 -1.847003396E+02  2.876650631E+02  3.409418070E+02  4.828113800E+02  3.300000000E-01  0.00000E+00  9.000E+00
       2     1     1     2   511     0 -1.305722621E+02 -8.609483013E+01  3.635106947E+02  3.957291618E+02  3.300000000E-01  0.00000E+00  9.000E+00
      21     1     1     2   502   511  1.840714033E+01  1.021657452E+00  3.660023491E+02  3.664663507E+02  9.344061824E-06  0.00000E+00  9.000E+00
</event>
<event>
      8  10001  1.48466E-02  7.02759E+01 -1.00000E+00  1.33823E-01
      -2    -1     0     0     0   501  0.000000000E+00  0.000000000E+00  6.837067811E+01  6.837067811E+01  0.000000000E+00  0.00000E+00  9.000E+00
       4    -1     0     0   502     0  0.000000000E+00  0.000000000E+00 -5.503300979E+02  5.503300979E+02  0.000000000E+00  0.00000E+00  9.000E+00
      23     2     1     2     0     0 -1.977662820E+01  1.158686766E+01  1.661852869E+01  9.548192167E+01  9.118800000E+01  0.00000E+00  9.000E+00
     -13     1     3     3     0     0  1.945784525E+01  2.125915243E+01  3.961375517E+01  4.898795847E+01  1.057000000E-01  0.00000E+00  9.000E+00
      13     1     3     3     0     0 -3.923447345E+01 -9.672284778E+00 -2.299522648E+01  4.649396319E+01  1.057000000E-01  0.00000E+00  9.000E+00
      -2     1     1     2     0   501 -3.193780072E+00  2.605625214E+01 -4.638998117E+02  4.646420910E+02  3.300000000E-01  0.00000E+00  9.000E+00
       4     1     1     2   512     0  1.897558962E-01 -7.766564050E-01 -6.888547805E+00  7.095159853E+00  1.500000000E+00  0.00000E+00  9.000E+00
      21     1     1     2   502   512  2.278065238E+01 -3.686646339E+01 -2.778958893E+01  5.148160349E+01  8.920806376E-07  0.00000E+00  9.000E+00
</event>
<event>
      8  10001  1.09491E-02  1.07570E+02 -1.00000E+00  1.24751E-01
       2    -1     0     0   501     0  0.000000000E+00  0.000000000E+00  8.335287574E+02  8.335287574E+02  0.000000000E+00  0.00000E+00  9.000E+00
       3    -1     0     0   502     0  0.000000000E+00  0.000000000E+00 -1.896140267E+02  1.896140267E+02  0.000000000E+00  0.00000E+00  9.000E+00
      23     2     1     2     0     0  1.415427290E+02 -3.000127556E+02  3.742030986E+02  5.083160513E+02  9.118800000E+01  0.00000E+00  9.000E+00
     -13     1     3     3     0     0  4.751718933E+01 -1.730372515E+02  2.479491260E+02  3.060695247E+02  1.057000000E-01  0.00000E+00  9.000E+00
      13     1     3     3     0     0  9.402553966E+01 -1.269755041E+02  1.262539726E+02  2.022465266E+02  1.057000000E-01  0.00000E+00  9.000E+00
       1     1     1     2   511     0 -4.356649763E+01 -1.819751149E+01  2.657709411E+01  5.418154641E+01  3.300000000E-01  0.00000E+00  9.000E+00
       4     1     1     2   502     0 -8.204432338E+01  2.955356765E+02  2.794729075E+02  4.149457351E+02  1.500000000E+00  0.00000E+00  9.000E+00
      21     1     1     2   501   511 -1.593190798E+01  2.267459055E+01 -3.633836950E+01  4.569945127E+01  2.780414531E-06  0.00000E+00  9.000E+00
</event>
<event>
      8  10001  2.47458E-02  1.48834E+02 -1.00000E+00  1.18635E-01
      -3    -1     0     0     0   501  0.000000000E+00  0.000000000E+00  5.244779516E+01  5.244779516E+01  0.000000000E+00  0.00000E+00  9.000E+00
       2    -1     0     0   502     0  0.000000000E+00  0.000000000E+00 -1.148309412E+03  1.148309412E+03  0.000000000E+00  0.00000E+00  9.000E+00
      23     2     1     2     0     0 -3.731753464E+01 -1.037359216E+01 -8.324335165E+02  8.383084280E+02  9.118800000E+01  0.00000E+00  9.000E+00
     -13     1     3     3     0     0  2.389653160E+01 -1.275440541E+01 -4.662358419E+02  4.670220450E+02  1.057000000E-01  0.00000E+00  9.000E+00
      13     1     3     3     0     0 -6.121406624E+01  2.380813256E+00 -3.661976746E+02  3.712863830E+02  1.057000000E-01  0.00000E+00  9.000E+00
      -3     1     1     2     0   501  2.244148421E+00 -3.578914790E-01  4.246481037E+01  4.252851288E+01  5.000000000E-01  0.00000E+00  9.000E+00
       2     1     1     2   511     0 -2.120765684E+01 -3.940114205E+00 -2.478598878E+01  3.285944839E+01  3.300000000E-01  0.00000E+00  9.000E+00
      21     1     1     2   502   511  5.628104305E+01  1.467159784E+01 -2.811069223E+02  2.870608182E+02  6.607249480E-06  0.00000E+00  9.000E+00
</event>
<event>
      8  10001  1.86309E-02  7.93931E+01 -1.00000E+00  1.31088E-01
       1    -1     0     0   501     0  0.000000000E+00  0.000000000E+00  3.239391260E+02  3.239391260E+02  0.000000000E+00  0.00000E+00  9.000E+00
       2    -1     0     0   502     0  0.000000000E+00  0.000000000E+00 -5.524783913E+02  5.524783913E+02  0.000000000E+00  0.00000E+00  9.000E+00
      23     2     1     2     0     0 -4.445478636E+01  1.705528853E+02  2.716650757E+02  3.364248496E+02  9.118800000E+01  0.00000E+00  9.000E+00
     -13     1     3     3     0     0 -1.745753306E+01  2.469736286E+01  4.137013903E+00  3.052623870E+01  1.057000000E-01  0.00000E+00  9.000E+00
      13     1     3     3     0     0 -2.699725330E+01  1.458555224E+02  2.675280618E+02  3.058986109E+02  1.057000000E-01  0.00000E+00  9.000E+00
       2     1     1     2   512     0  1.261023954E+01 -3.559639351E-01 -7.991937938E+00  1.493736334E+01  3.300000000E-01  0.00000E+00  9.000E+00
       1     1     1     2   502     0  3.092371093E+01 -1.620708670E+02 -4.029875227E+02  4.354564205E+02  3.300000000E-01  0.00000E+00  9.000E+00
      21     1     1     2   501   512  9.208358927E-01 -8.126054295E+00 -8.922488049E+01  8.959888390E+01  3.568322551E-06  0.00000E+00  9.000E+00
</event>
<event>
      8  10001  1.19188E-02  2.82861E+02 -1.00000E+00  1.08177E-01
      -1    -1     0     0     0   501  0.000000000E+00  0.000000000E+00  1.080197191E+02  1.080197191E+02  0.000000000E+00  0.00000E+00  9.000E+00
      -4    -1     0     0     0   502  0.000000000E+00  0.000000000E+00 -7.220931437E+02  7.220931437E+02  0.000000000E+00  0.00000E+00  9.000E+00
      23     2     1     2     0     0  1.180517428E+02 -3.122321948E+01 -5.283688000E+02  5.499090321E+02  9.118800000E+01  0.00000E+00  9.000E+00
     -13     1     3     3     0     0  5.108819164E+00  2.211759514E+01 -4.182428374E+01  4.758749763E+01  1.057000000E-01  0.00000E+00  9.000E+00
      13     1     3     3     0     0  1.129429236E+02 -5.334081462E+01 -4.865445162E+02  5.023215344E+02  1.057000000E-01  0.00000E+00  9.000E+00
      -2     1     1     2     0   501 -8.853313517E+01 -9.552135699E-01 -1.620626073E+02  1.846711294E+02  3.300000000E-01  0.00000E+00  9.000E+00
      -3     1     1     2     0   511 -1.340494442E+00  3.570796590E+00 -4.093267980E+00  5.617148422E+00  5.000000000E-01  0.00000E+00  9.000E+00
      21     1     1     2   511   502 -2.817811316E+01  2.860763646E+01  8.045125064E+01  8.991555291E+01  2.523185073E-06  0.00000E+00  9.000E+00
</event>
<event>
      8  10001  1.10616E-02  1.75523E+02 -1.00000E+00  1.15756E-01
      -1    -1     0     0     0   501  0.000000000E+00  0.000000000E+00  2.103515516E+02  2.103515516E+02  0.000000000E+00  0.00000E+00  9.000E+00
       1    -1     0     0   502     0  0.000000000E+00  0.000000000E+00 -6.558929601E+02  6.558929601E+02  0.000000000E+00  0.00000E+00  9.000E+00
      23     2     1     2     0     0 -1.071804612E+02  9.987861236E+01 -5.272040989E+02  5.547276825E+02  9.118800000E+01  0.00000E+00  9.000E+00
     -13     1     3     3     0     0 -1.050172639E+02  5.438279345E+01 -4.481442948E+02  4.634861746E+02  1.057000000E-01  0.00000E+00  9.000E+00
      13     1     3     3     0     0 -2.163197355E+00  4.549581890E+01 -7.905980414E+01  9.124150790E+01  1.057000000E-01  0.00000E+00  9.000E+00
      -2     1     1     2     0   501  7.248043066E+01 -7.325076126E+01  1.309809445E+02  1.666589439E+02  3.300000000E-01  0.00000E+00  9.000E+00
       2     1     1     2   512     0 -1.779256172E+01 -1.414211984E+01 -7.973934930E+01  8.291590639E+01  3.300000000E-01  0.00000E+00  9.000E+00
      21     1     1     2   502   512  5.249259229E+01 -1.248573125E+01  3.042109523E+01  6.194197902E+01  1.907348633E-06  0.00000E+00  9.000E+00
</event>
<event>
      8  10001  1.07656E-02  2.36620E+02 -1.00000E+00  1.10891E-01
       3    -1     0     0   501     0  0.000000000E+00  0.000000000E+00  8.389429758E+02  8.389429758E+02  0.000000000E+00  0.00000E+00  9.000E+00
       2    -1     0     0   502     0  0.000000000E+00  0.000000000E+00 -9.461745418E+01  9.461745418E+01  0.000000000E+00  0.00000E+00  9.000E+00
      23     2     1     2     0     0  2.633574069E+01 -1.727382749E+02  1.265264174E+02  2.342141509E+02  9.118800000E+01  0.00000E+00  9.000E+00
     -13     1     3     3     0     0  2.113925667E+01 -1.837111490E+02  1.176932380E+02  2.191993701E+02  1.057000000E-01  0.00000E+00  9.000E+00
      13     1     3     3     0     0  5.196484020E+00  1.097287407E+01  8.833179409E+00  1.501478080E+01  1.057000000E-01  0.00000E+00  9.000E+00
       4     1     1     2   501     0 -6.220499714E+01  1.334718617E+02  2.931226871E+02  3.280356066E+02  1.500000000E+00  0.00000E+00  9.000E+00
       1     1     1     2   511     0  9.389041479E+00 -3.007338273E+00 -2.039348725E+01  2.265394901E+01  3.300000000E-01  0.00000E+00  9.000E+00
      21     1     1     2   502   511  2.648021497E+01  4.227375143E+01  3.450699045E+02  3.486567235E+02  3.814697266E-06  0.00000E+00  9.000E+00
</event>
<event>
      8  10001  1.07963E-02  1.06499E+02 -1.00000E+00  1.24950E-01
       2    -1     0     0   501     0  0.000000000E+00  0.000000000E+00  6.167422880E+02  6.167422880E+02  0.000000000E+00  0.00000E+00  9.000E+00
       1    -1     0     0   502     0  0.000000000E+00  0.000000000E+00 -1.787784016E+02  1.787784016E+02  0.000000000E+00  0.00000E+00  9.000E+00
      23     2     1     2     0     0  1.245753615E+02  1.102161606E+02  4.439612000E+02  4.827871386E+02  9.118800000E+01  0.00000E+00  9.000E+00
     -13     1     3     3     0     0  2.927998590E+01  8.145188105E+01  1.604251308E+02  1.822853814E+02  1.057000000E-01  0.00000E+00  9.000E+00
      13     1     3     3     0     0  9.529537558E+01  2.876427960E+01  2.835360692E+02  3.005017572E+02  1.057000000E-01  0.00000E+00  9.000E+00
       1     1     1     2   501     0 -1.505659793E+02 -7.823034366E+01 -7.660465559E+01  1.861678892E+02  3.300000000E-01  0.00000E+00  9.000E+00
       2     1     1     2   512     0  4.071860546E+01  2.298566207E+01  2.179490909E+01  5.158946069E+01  3.300000000E-01  0.00000E+00  9.000E+00
      21     1     1     2   502   512 -1.472798761E+01 -5.497147906E+01  4.881243285E+01  7.497620109E+01  1.651812370E-06  0.00000E+00  9.000E+00
</event>
<event>
      8  10001  1.20021E-02  1.85700E+02 -1.00000E+00  1.14805E-01
      -3    -1     0     0     0   501  0.000000000E+00  0.000000000E+00  1.154145098E+02  1.154145098E+02  0.000000000E+00  0.00000E+00  9.000E+00
      -2    -1     0     0     0   502  0.000000000E+00  0.000000000E+00 -2.160515633E+02  2.160515633E+02  0.000000000E+00  0.00000E+00  9.000E+00
      23     2     1     2     0     0  2.940049444E+01  5.691702245E+01 -1.433055230E+01  1.123590343E+02  9.118800000E+01  0.00000E+00  9.000E+00
     -13     1     3     3     0     0  4.600141315E+00  1.974554733E+01  3.828905317E+01  4.332563565E+01  1.057000000E-01  0.00000E+00  9.000E+00
      13     1     3     3     0     0  2.480035312E+01  3.717147512E+01 -5.261960547E+01  6.903339866E+01  1.057000000E-01  0.00000E+00  9.000E+00
      -3     1     1     2     0   511  2.422584524E+00 -8.974670960E+00  9.913216964E+00  1.359909943E+01  5.000000000E-01  0.00000E+00  9.000E+00
      -2     1     1     2     0   502 -5.111016432E+01 -1.689391462E+01  3.832933843E+01  6.608252668E+01  3.300000000E-01  0.00000E+00  9.000E+00
      21     1     1     2   511   501  1.928708536E+01 -3.104843687E+01 -1.345490566E+02  1.394254127E+02  4.264961200E-06  0.00000E+00  9.000E+00
</event>
<event>
      8  10001  1.09153E-02  2.02556E+02 -1.00000E+00  1.13369E-01
       1    -1     0     0   501     0  0.000000000E+00  0.000000000E+00  4.306949548E+01  4.306949548E+01  0.000000000E+00  0.00000E+00  9.000E+00
       2    -1     0     0   502     0  0.000000000E+00  0.000000000E+00 -1.233617570E+03  1.233617570E+03  0.000000000E+00  0.00000E+00  9.000E+00
      23     2     1     2     0     0 -3.822915604E+01 -1.048511520E+02 -6.077473475E+02  6.246017309E+02  9.118800000E+01  0.00000E+00  9.000E+00
     -13     1     3     3     0     0 -3.883163817E+01 -1.621239930E+00 -2.167094823E+02  2.201670625E+02  1.057000000E-01  0.00000E+00  9.000E+00
      13     1     3     3     0     0  6.024821323E-01 -1.032299121E+02 -3.910378653E+02  4.044346684E+02  1.057000000E-01  0.00000E+00  9.000E+00
       2     1     1     2   501     0 -1.863887667E+01  8.312016067E+01 -1.587262514E+02  1.801402249E+02  3.300000000E-01  0.00000E+00  9.000E+00
       1     1     1     2   511     0  8.065383004E+01  2.105798072E+01 -4.369907876E+02  4.448702465E+02  3.300000000E-01  0.00000E+00  9.000E+00
      21     1     1     2   502   511 -2.378579733E+01  6.730106060E-01  1.291631208E+01  2.707486317E+01  4.705370511E-06  0.00000E+00  9.000E+00
</event>
<event>
      8  10001  1.27053E-02  8.77928E+01 -1.00000E+00  1.28918E-01
       2    -1     0     0   501     0  0.000000000E+00  0.000000000E+00  2.421166239E+03  2.421166239E+03  0.000000000E+00  0.00000E+00  9.000E+00
       2    -1     0     0   502     0  0.000000000E+00  0.000000000E+00 -2.116166857E+01  2.116166857E+01  0.000000000E+00  0.00000E+00  9.000E+00
      23     2     1     2     0     0 -1.093881241E+01 -9.310318548E+01  2.216638409E+02  2.573673842E+02  9.118800000E+01  0.00000E+00  9.000E+00
     -13     1     3     3     0     0  3.133709226E+01 -1.085585040E+01  9.437282492E+01  1.000305158E+02  1.057000000E-01  0.00000E+00  9.000E+00
      13     1     3     3     0     0 -4.227590467E+01 -8.224733507E+01  1.272910160E+02  1.573368684E+02  1.057000000E-01  0.00000E+00  9.000E+00
       2     1     1     2   512     0 -8.556261812E+00  3.230558395E+00  4.283448363E+02  4.284425911E+02  3.300000000E-01  0.00000E+00  9.000E+00
       2     1     1     2   502     0  2.786994357E+01  2.356137661E+01  1.383244913E+03  1.383726299E+03  3.300000000E-01  0.00000E+00  9.000E+00
      21     1     1     2   501   512 -8.374869342E+00  6.631125048E+01  3.667509797E+02  3.727916328E+02  9.344061824E-06  0.00000E+00  9.000E+00
</event>
<event>
      8  10001  1.17078E-02  6.53240E+01 -1.00000E+00  1.35518E-01
       1    -1     0     0   501     0  0.000000000E+00  0.000000000E+00  5.026718644E+02  5.026718644E+02  0.000000000E+00  0.00000E+00  9.000E+00
      -1    -1     0     0     0   502  0.000000000E+00  0.000000000E+00 -2.960094444E+02  2.960094444E+02  0.000000000E+00  0.00000E+00  9.000E+00
      23     2     1     2     0     0  1.616067906E+02 -2.692813280E+01 -2.262357713E+02  2.938362718E+02  9.118800000E+01  0.00000E+00  9.000E+00
     -13     1     3     3     0     0  1.201384123E+02 -6.014146668E+01 -1.601086436E+02  2.090096243E+02  1.057000000E-01  0.00000E+00  9.000E+00
      13     1     3     3     0     0  4.146837826E+01  3.321333387E+01 -6.612712764E+01  8.482664749E+01  1.057000000E-01  0.00000E+00  9.000E+00
       2     1     1     2   501     0 -1.667469972E+02  4.627003061E+01  3.907178456E+02  4.273242569E+02  3.300000000E-01  0.00000E+00  9.000E+00
      -2     1     1     2     0   511  1.982915047E+01 -2.387154779E+01 -1.644567190E+00  3.107828025E+01  3.300000000E-01  0.00000E+00  9.000E+00
      21     1     1     2   511   502 -1.468894389E+01  4.529649980E+00  4.382491289E+01  4.644249983E+01  6.743495762E-07  0.00000E+00  9.000E+00
</event>
<event>
      8  10001  1.72656E-02  6.86251E+01 -1.00000E+00  1.34370E-01
       2    -1     0     0   501     0  0.000000000E+00  0.000000000E+00  4.270743586E+02  4.270743586E+02  0.000000000E+00  0.00000E+00  9.000E+00
       1    -1     0     0   502     0  0.000000000E+00  0.000000000E+00 -4.921218941E+01  4.921218941E+01  0.000000000E+00  0.00000E+00  9.000E+00
      23     2     1     2     0     0  2.129878304E+01 -3.134463006E+01  2.504754869E+01  1.018761750E+02  9.118800000E+01  0.00000E+00  9.000E+00
     -13     1     3     3     0     0 -4.753119418E+00 -9.580244169E+00 -3.296755231E+01  3.465896566E+01  1.057000000E-01  0.00000E+00  9.000E+00
      13     1     3     3     0     0  2.605190246E+01 -2.176438589E+01  5.801510100E+01  6.721720934E+01  1.057000000E-01  0.00000E+00  9.000E+00
       1     1     1     2   501     0 -2.442295273E+01  3.102597889E+01  2.591724875E+02  2.621632681E+02  3.300000000E-01  0.00000E+00  9.000E+00
       2     1     1     2   512     0  9.108396147E+00 -4.471577334E+00 -6.341530677E+00  1.197003741E+01  3.300000000E-01  0.00000E+00  9.000E+00
      21     1     1     2   502   512 -5.984226462E+00  4.790228510E+00  9.998366374E+01  1.002770675E+02  1.348699152E-06  0.00000E+00  9.000E+00
</event>
<event>
      8  10001  1.26703E-02  1.13182E+02 -1.00000E+00  1.23751E-01
      -1    -1     0     0     0   501  0.000000000E+00  0.000000000E+00  1.059140059E+01  1.059140059E+01  0.000000000E+00  0.00000E+00  9.000E+00
       1    -1     0     0   502     0  0.000000000E+00  0.000000000E+00 -1.606762919E+03  1.606762919E+03  0.000000000E+00  0.00000E+00  9.000E+00
      23     2     1     2     0     0 -6.185179274E+00  2.846739955E+01 -7.544514260E+02  7.605003977E+02  9.118800000E+01  0.00000E+00  9.000E+00
     -13     1     3     3     0     0 -4.279818105E+01  3.868796232E+01 -4.628393289E+02  4.664211597E+02  1.057000000E-01  0.00000E+00  9.000E+00
      13     1     3     3     0     0  3.661300178E+01 -1.022056278E+01 -2.916120972E+02  2.940792379E+02  1.057000000E-01  0.00000E+00  9.000E+00
      -1     1     1     2     0   511  1.563476355E+01 -2.919081328E+01 -6.314246318E+01  7.129957200E+01  3.300000000E-01  0.00000E+00  9.000E+00
       1     1     1     2   502     0 -2.683293161E+00  2.012365481E+01 -2.743802533E+01  3.413379087E+01  3.300000000E-01  0.00000E+00  9.000E+00
      21     1     1     2   511   501 -6.766291111E+00 -1.940024108E+01 -7.511396041E+02  7.514205593E+02  1.078959322E-05  0.00000E+00  9.000E+00
</event>
<event>
      8  10001  1.13468E-02  6.09281E+01 -1.00000E+00  1.37175E-01
       2    -1     0     0   501     0  0.000000000E+00  0.000000000E+00  1.286218750E+03  1.286218750E+03  0.000000000E+00  0.00000E+00  9.000E+00
      -4    -1     0     0     0   502  0.000000000E+00  0.000000000E+00 -4.744468564E+01  4.744468564E+01  0.000000000E+00  0.00000E+00  9.000E+00
      23     2     1     2     0     0  1.475398571E+02 -4.568600932E+01  1.101651861E+03  1.116157379E+03  9.118800000E+01  0.00000E+00  9.000E+00
     -13     1     3     3     0     0  1.370676409E+02 -6.722984030E+01  8.724055641E+02  8.856629545E+02  1.057000000E-01  0.00000E+00  9.000E+00
      13     1     3     3     0     0  1.047221617E+01  2.154383098E+01  2.292462969E+02  2.304944246E+02  1.057000000E-01  0.00000E+00  9.000E+00
       1     1     1     2   511     0 -6.819500094E+00  2.226289032E+00  8.193208516E+00  1.089493048E+01  3.300000000E-01  0.00000E+00  9.000E+00
      -3     1     1     2     0   502 -8.947858926E+01  3.175515522E+01  1.204454231E+02  1.533693508E+02  5.000000000E-01  0.00000E+00  9.000E+00
      21     1     1     2   501   511 -5.124176772E+01  1.170456507E+01  8.483571368E+00  5.324177481E+01  5.312509526E-06  0.00000E+00  9.000E+00
</event>
<event>
      8  10001  1.28158E-02  1.27989E+02 -1.00000E+00  1.21399E-01
      -2    -1     0     0     0   501  0.000000000E+00  0.000000000E+00  1.008310664E+02  1.008310664E+02  0.000000000E+00  0.00000E+00  9.000E+00
       2    -1     0     0   502     0  0.000000000E+00  0.000000000E+00 -1.939674580E+02  1.939674580E+02  0.000000000E+00  0.00000E+00  9.000E+00
      23     2     1     2     0     0  4.850981201E+01  2.563714549E+01 -9.030559125E+01  1.395736947E+02  9.118800000E+01  0.00000E+00  9.000E+00
     -13     1     3     3     0     0  3.879815519E+01 -3.056227363E+01 -4.190897652E+01  6.477440005E+01  1.057000000E-01  0.00000E+00  9.000E+00
      13     1     3     3     0     0  9.711656820E+00  5.619941912E+01 -4.839661472E+01  7.479929463E+01  1.057000000E-01  0.00000E+00  9.000E+00
      -2     1     1     2     0   501 -2.936618477E+01 -3.773735441E+01 -1.427312567E+01  4.990302338E+01  3.300000000E-01  0.00000E+00  9.000E+00
       2     1     1     2   511     0  3.415500281E+01  2.848265196E+01 -9.995076301E+00  4.558328784E+01  3.300000000E-01  0.00000E+00  9.000E+00
      21     1     1     2   502   511 -5.329863005E+01 -1.638244304E+01  2.143740165E+01  5.973851852E+01  1.784161275E-06  0.00000E+00  9.000E+00
</event>
<event>
      8  10001  1.06389E-02  3.84738E+02 -1.00000E+00  1.03805E-01
       2    -1     0     0   501     0  0.000000000E+00  0.000000000E+00  5.303635259E+02  5.303635259E+02  0.000000000E+00  0.00000E+00  9.000E+00
       1    -1     0     0   502     0  0.000000000E+00  0.000000000E+00 -5.776848974E+02  5.776848974E+02  0.000000000E+00  0.00000E+00  9.000E+00
      23     2     1     2     0     0 -3.235074896E+02  1.116120695E+02 -3.104142553E+02  4.709422588E+02  9.118800000E+01  0.00000E+00  9.000E+00
     -13     1     3     3     0     0 -2.297370474E+02  8.918311902E+01 -2.723169214E+02  3.672727278E+02  1.057000000E-01  0.00000E+00  9.000E+00
      13     1     3     3     0     0 -9.377044221E+01  2.242895049E+01 -3.809733386E+01  1.036695311E+02  1.057000000E-01  0.00000E+00  9.000E+00
       1     1     1     2   512     0 -1.687094850E+01  5.607185671E+01  2.840294066E+01  6.508085706E+01  3.300000000E-01  0.00000E+00  9.000E+00
       2     1     1     2   502     0  1.642047145E+02 -8.174315611E+01  3.115017330E+02  3.614949106E+02  3.300000000E-01  0.00000E+00  9.000E+00
      21     1     1     2   501   512  1.761737237E+02 -8.594077011E+01 -7.681178987E+01  2.105303967E+02  4.862803949E-06  0.00000E+00  9.000E+00
</event>
<event>
      8  10001  3.17747E-02  6.98218E+01 -1.00000E+00  1.33972E-01
       2    -1     0     0   501     0  0.000000000E+00  0.000000000E+00  3.312476456E+02  3.312476456E+02  0.000000000E+00  0.00000E+00  9.000E+00
      -2    -1     0     0     0   502  0.000000000E+00  0.000000000E+00 -6.078348030E+01  6.078348030E+01  0.000000000E+00  0.00000E+00  9.000E+00
      23     2     1     2     0     0 -1.539763516E+01 -5.673247845E+01  2.903985494E+02  3.100035969E+02  9.118800000E+01  0.00000E+00  9.000E+00
     -13     1     3     3     0     0  1.576357185E+01  1.815872441E+01  1.035863380E+02  1.063408203E+02  1.057000000E-01  0.00000E+00  9.000E+00
      13     1     3     3     0     0 -3.116120701E+01 -7.489120286E+01  1.868122114E+02  2.036627766E+02  1.057000000E-01  0.00000E+00  9.000E+00
       1     1     1     2   511     0 -7.251286874E+00 -6.529291900E-01  5.968131913E+00  9.419924436E+00  3.300000000E-01  0.00000E+00  9.000E+00
      -1     1     1     2     0   502  8.831105202E+00  4.850906993E+01 -1.119708376E+01  5.056285068E+01  3.300000000E-01  0.00000E+00  9.000E+00
      21     1     1     2   501   511  1.381781683E+01  8.876337710E+00 -1.470543226E+01  2.204475382E+01  5.331201500E-07  0.00000E+00  9.000E+00
</event>
<event>
      8  10001  1.05685E-02  6.24361E+02 -1.00000E+00  9.76069E-02
      -1    -1     0     0     0   501  0.000000000E+00  0.000000000E+00  2.645576954E+02  2.645576954E+02  0.000000000E+00  0.00000E+00  9.000E+00
       1    -1     0     0   502     0  0.000000000E+00  0.000000000E+00 -8.026554485E+02  8.026554485E+02  0.000000000E+00  0.00000E+00  9.000E+00
      23     2     1     2     0     0 -5.377249518E+01 -1.110080826E+02 -7.029959697E+01  1.687351781E+02  9.118800000E+01  0.00000E+00  9.000E+00
     -13     1     3     3     0     0 -4.503673855E+01 -3.268079489E+00 -1.740281913E+01  4.839274169E+01  1.057000000E-01  0.00000E+00  9.000E+00
      13     1     3     3     0     0 -8.735756630E+00 -1.077400031E+02 -5.289677785E+01  1.203424364E+02  1.057000000E-01  0.00000E+00  9.000E+00
      -2     1     1     2     0   511  9.290070421E+01  1.329254560E+02  1.246705236E+02  2.045545552E+02  3.300000000E-01  0.00000E+00  9.000E+00
       2     1     1     2   502     0 -3.405489450E+00 -1.148485598E+02 -2.474231591E+01  1.175333150E+02  3.300000000E-01  0.00000E+00  9.000E+00
      21     1     1     2   511   501 -3.572271958E+01  9.293118638E+01 -5.677263638E+02  5.763900956E+02  1.321449896E-05  0.00000E+00  9.000E+00
</event>
<event>
      8  10001  1.21865E-02  1.05610E+02 -1.00000E+00  1.25117E-01
       4    -1     0     0   501     0  0.000000000E+00  0.000000000E+00  1.703208975E+02  1.703208975E+02  0.000000000E+00  0.00000E+00  9.000E+00
      -2    -1     0     0     0   502  0.000000000E+00  0.000000000E+00 -2.220204339E+02  2.220204339E+02  0.000000000E+00  0.00000E+00  9.000E+00
      23     2     1     2     0     0  6.991412340E+01  8.252294621E+00 -1.582730971E+02  1.957593156E+02  9.118800000E+01  0.00000E+00  9.000E+00
     -13     1     3     3     0     0  1.881833968E+01 -3.830329007E+01 -3.853013788E+01  5.749656195E+01  1.057000000E-01  0.00000E+00  9.000E+00
      13     1     3     3     0     0  5.109578371E+01  4.655558469E+01 -1.197429592E+02  1.382627536E+02  1.057000000E-01  0.00000E+00  9.000E+00
       3     1     1     2   501     0 -6.614573530E+01  1.190895723E+01  8.454967706E+01  1.080091637E+02  5.000000000E-01  0.00000E+00  9.000E+00
      -1     1     1     2     0   511  3.072626574E+01 -1.385140489E+01 -1.560009622E+01  3.714076905E+01  3.300000000E-01  0.00000E+00  9.000E+00
      21     1     1     2   511   502 -3.449465384E+01 -6.309846960E+00  3.762397978E+01  5.143208304E+01  8.259061849E-07  0.00000E+00  9.000E+00
</event>
<event>
      8  10001  1.06327E-02  5.43663E+02 -1.00000E+00  9.93003E-02
      21    -1     0     0   501   512  0.000000000E+00  0.000000000E+00  2.592151931E+02  2.592151931E+02  0.000000000E+00  0.00000E+00  9.000E+00
       1    -1     0     0   502     0  0.000000000E+00  0.000000000E+00 -2.384091825E+03  2.384091825E+03  0.000000000E+00  0.00000E+00  9.000E+00
      23     2     1     2     0     0  4.915584075E+01 -7.669083231E+01 -2.814875895E+02  3.095937577E+02  9.118800000E+01  0.00000E+00  9.000E+00
     -13     1     3     3     0     0 -7.733739882E-01 -3.019949927E+01 -2.045339626E+02  2.067528982E+02  1.057000000E-01  0.00000E+00  9.000E+00
      13     1     3     3     0     0  4.992921474E+01 -4.649133304E+01 -7.695362685E+01  1.028408595E+02  1.057000000E-01  0.00000E+00  9.000E+00
       1     1     1     2   501     0 -6.971206898E+01 -4.271723831E+02 -1.535751467E+03  1.595577856E+03  3.300000000E-01  0.00000E+00  9.000E+00
       1     1     1     2   502     0  1.099032888E+02 -3.240802543E+01 -2.319291165E+00  1.146058507E+02  3.300000000E-01  0.00000E+00  9.000E+00
      -1     1     1     2     0   512 -8.934706057E+01  5.362712408E+02 -3.053182846E+02  6.235295540E+02  3.300000000E-01  0.00000E+00  9.000E+00
</event>
<event>
      8  10001  1.42512E-02  1.59770E+02 -1.00000E+00  1.17380E-01
       2    -1     0     0   501     0  0.000000000E+00  0.000000000E+00  1.351386021E+03  1.351386021E+03  0.000000000E+00  0.00000E+00  9.000E+00
      -4    -1     0     0     0   502  0.000000000E+00  0.000000000E+00 -2.000320032E+01  2.000320032E+01  0.000000000E+00  0.00000E+00  9.000E+00
      23     2     1     2     0     0 -3.629591929E+01  5.195392711E+01  2.574080085E+02  2.803403975E+02  9.118800000E+01  0.00000E+00  9.000E+00
     -13     1     3     3     0     0  2.039578300E+01  1.414996048E+01  1.607964043E+01  2.957660147E+01  1.057000000E-01  0.00000E+00  9.000E+00
      13     1     3     3     0     0 -5.669170229E+01  3.780396663E+01  2.413283681E+02  2.507637961E+02  1.057000000E-01  0.00000E+00  9.000E+00
       1     1     1     2   511     0 -3.104327130E+01  1.037432589E+00  3.880155860E+02  3.892569394E+02  3.300000000E-01  0.00000E+00  9.000E+00
      -3     1     1     2     0   502  1.892313307E+01  4.404816916E+00  5.113761075E+02  5.117453084E+02  5.000000000E-01  0.00000E+00  9.000E+00
      21     1     1     2   501   511  4.841605753E+01 -5.739617661E+01  1.745831185E+02  1.900465758E+02  6.325959759E-06  0.00000E+00  9.000E+00
</event>
<event>
      8  10001  1.19507E-02  1.02186E+02 -1.00000E+00  1.25778E-01
      21    -1     0     0   511   501  0.000000000E+00  0.000000000E+00  4.411589801E+01  4.411589801E+01  0.000000000E+00  0.00000E+00  9.000E+00
       2    -1     0     0   502     0  0.000000000E+00  0.000000000E+00 -2.175948355E+03  2.175948355E+03  0.000000000E+00  0.00000E+00  9.000E+00
      23     2     1     2     0     0 -3.957261283E+01 -1.412114682E+02 -1.327081518E+03  1.338270256E+03  9.118800000E+01  0.00000E+00  9.000E+00
     -13     1     3     3     0     0 -1.705415257E+01 -1.183904243E+02 -1.234765522E+03  1.240545461E+03  1.057000000E-01  0.00000E+00  9.000E+00
      13     1     3     3     0     0 -2.251846026E+01 -2.282104394E+01 -9.231599638E+01  9.772479450E+01  1.057000000E-01  0.00000E+00  9.000E+00
      -3     1     1     2     0   501  3.477474566E+01  8.861766386E+01 -6.214501700E+02  6.286994012E+02  5.000000000E-01  0.00000E+00  9.000E+00
       2     1     1     2   502     0  6.005280482E+01 -3.336459829E+01 -4.921604481E+01  8.450954829E+01  3.300000000E-01  0.00000E+00  9.000E+00
       3     1     1     2   511     0 -5.525493765E+01  8.595840262E+01 -1.340847243E+02  1.685850480E+02  5.000000000E-01  0.00000E+00  9.000E+00
</event>
<event>
      8  10001  1.06037E-02  2.63495E+02 -1.00000E+00  1.09239E-01
       2    -1     0     0   501     0  0.000000000E+00  0.000000000E+00  1.479247015E+03  1.479247015E+03  0.000000000E+00  0.00000E+00  9.000E+00
      21    -1     0     0   511   502  0.000000000E+00  0.000000000E+00 -3.698242841E+02  3.698242841E+02  0.000000000E+00  0.00000E+00  9.000E+00
      23     2     1     2     0     0  1.324386281E+01  5.994279967E+01 -1.697086250E+01  1.112285964E+02  9.118800000E+01  0.00000E+00  9.000E+00
     -13     1     3     3     0     0  1.102320579E+01  4.593585480E+01 -5.389886413E+01  7.167086262E+01  1.057000000E-01  0.00000E+00  9.000E+00
      13     1     3     3     0     0  2.220657019E+00  1.400694488E+01  3.692800164E+01  3.955773376E+01  1.057000000E-01  0.00000E+00  9.000E+00
       2     1     1     2   501     0  1.932311022E+01  7.941994237E+01  7.166513090E+02  7.212975236E+02  3.300000000E-01  0.00000E+00  9.000E+00
      -1     1     1     2     0   502 -2.580328793E+02 -2.757247536E+02 -1.433268292E+02  4.039155795E+02  3.300000000E-01  0.00000E+00  9.000E+00
       1     1     1     2   511     0  2.254659062E+02  1.363620115E+02  5.530691130E+02  6.126295991E+02  3.300000000E-01  0.00000E+00  9.000E+00
</event>
<event>
      8  10001  1.14275E-02  6.76387E+01 -1.00000E+00  1.34705E-01
      -2    -1     0     0     0   501  0.000000000E+00  0.000000000E+00  1.649854282E+01  1.649854282E+01  0.000000000E+00  0.00000E+00  9.000E+00
       2    -1     0     0   502     0  0.000000000E+00  0.000000000E+00 -9.059122405E+02  9.059122405E+02  0.000000000E+00  0.00000E+00  9.000E+00
      23     2     1     2     0     0 -1.591285174E+01  1.078214782E+01 -3.189855240E+02  3.323198601E+02  9.118800000E+01  0.00000E+00  9.000E+00
     -13     1     3     3     0     0  5.187278726E+00 -1.513619021E+01 -5.295183968E+00  1.685414668E+01  1.057000000E-01  0.00000E+00  9.000E+00
      13     1     3     3     0     0 -2.110013046E+01  2.591833802E+01 -3.136903401E+02  3.154657135E+02  1.057000000E-01  0.00000E+00  9.000E+00
      -1     1     1     2     0   501  2.252938608E+00  4.948855211E+01 -2.339690833E+02  2.391565039E+02  3.300000000E-01  0.00000E+00  9.000E+00
       1     1     1     2   511     0  1.323980771E+01 -4.511320527E+01 -3.317378010E+02  3.350530873E+02  3.300000000E-01  0.00000E+00  9.000E+00
      21     1     1     2   502   511  4.201054193E-01 -1.515749465E+01 -4.721289381E+00  1.588133200E+01  1.299053116E-06  0.00000E+00  9.000E+00
</event>
<event>
      8  10001  1.06581E-02  8.53393E+02 -1.00000E+00  9.39911E-02
       2    -1     0     0   501     0  0.000000000E+00  0.000000000E+00  2.221887330E+03  2.221887330E+03  0.000000000E+00  0.00000E+00  9.000E+00
       1    -1     0     0   502     0  0.000000000E+00  0.000000000E+00 -2.910135198E+02  2.910135198E+02  0.000000000E+00  0.00000E+00  9.000E+00
      23     2     1     2     0     0 -5.696079510E+01  1.122155232E+02 -2.457947415E+02  2.908043365E+02  9.118800000E+01  0.00000E+00  9.000E+00
     -13     1     3     3     0     0 -2.355799638E+01  1.051301499E+02 -1.237721001E+02  1.640940936E+02  1.057000000E-01  0.00000E+00  9.000E+00
      13     1     3     3     0     0 -3.340279872E+01  7.085373314E+00 -1.220226413E+02  1.267102429E+02  1.057000000E-01  0.00000E+00  9.000E+00
       1     1     1     2   501     0 -1.057134904E+01 -2.253801842E+02  9.609152510E+02  9.870492436E+02  3.300000000E-01  0.00000E+00  9.000E+00
       2     1     1     2   512     0 -6.341638629E+00 -1.422736857E+01  6.535422787E+00  1.689541500E+01  3.300000000E-01  0.00000E+00  9.000E+00
      21     1     1     2   502   512  7.387378277E+01  1.273920296E+02  1.209217878E+03  1.218151854E+03  3.737624730E-05  0.00000E+00  9.000E+00
</event>
<event>
      8  10001  1.19997E-02  1.05467E+02 -1.00000E+00  1.25144E-01
      -1    -1     0     0     0   501  0.000000000E+00  0.000000000E+00  4.527503178E+02  4.527503178E+02  0.000000000E+00  0.00000E+00  9.000E+00
       3    -1     0     0   502     0  0.000000000E+00  0.000000000E+00 -4.119492566E+01  4.119492566E+01  0.000000000E+00  0.00000E+00  9.000E+00
      23     2     1     2     0     0 -5.774234325E+00  2.548114691E+00  5.698283778E+01  1.077131831E+02  9.118800000E+01  0.00000E+00  9.000E+00
     -13     1     3     3     0     0  2.029816735E+01  2.921215819E+01  6.057532347E+01  7.024775277E+01  1.057000000E-01  0.00000E+00  9.000E+00
      13     1     3     3     0     0 -2.607240168E+01 -2.666404350E+01 -3.592485685E+00  3.746543034E+01  1.057000000E-01  0.00000E+00  9.000E+00
      -2     1     1     2     0   501 -2.715073075E+01 -2.805358905E+01  8.617445895E+01  9.460609026E+01  3.300000000E-01  0.00000E+00  9.000E+00
       4     1     1     2   511     0  4.545400271E+01  4.024970238E+01  7.163770320E+01  9.391653434E+01  1.500000000E+00  0.00000E+00  9.000E+00
      21     1     1     2   502   511 -1.252903763E+01 -1.474422802E+01  1.967603922E+02  1.977094358E+02  2.697398305E-06  0.00000E+00  9.000E+00
</event>
<event>
      8  10001  1.16995E-02  4.28713E+02 -1.00000E+00  1.02351E-01
       3    -1     0     0   501     0  0.000000000E+00  0.000000000E+00  6.078546859E+02  6.078546859E+02  0.000000000E+00  0.00000E+00  9.000E+00
       2    -1     0     0   502     0  0.000000000E+00  0.000000000E+00 -5.321439478E+02  5.321439478E+02  0.000000000E+00  0.00000E+00  9.000E+00
      23     2     1     2     0     0  1.090399900E+02 -1.490673192E+02 -4.341188486E+02  4.805051625E+02  9.118800000E+01  0.00000E+00  9.000E+00
     -13     1     3     3     0     0  9.127577911E+01 -1.427378117E+02 -4.285744318E+02  4.608485711E+02  1.057000000E-01  0.00000E+00  9.000E+00
      13     1     3     3     0     0  1.776421086E+01 -6.329507472E+00 -5.544416845E+00  1.965659134E+01  1.057000000E-01  0.00000E+00  9.000E+00
       4     1     1     2   501     0 -1.390146678E+02  1.513611034E+02  3.252595976E+02  3.847483818E+02  1.500000000E+00  0.00000E+00  9.000E+00
       1     1     1     2   512     0 -1.168216420E+01  1.272963025E+01 -4.119781082E+01  4.467532835E+01  3.300000000E-01  0.00000E+00  9.000E+00
      21     1     1     2   502   512  4.165684207E+01 -1.502341445E+01  2.257678000E+02  2.300697611E+02  4.672030912E-06  0.00000E+00  9.000E+00
</event>
<event>
      8  10001  1.09168E-02  1.42582E+02 -1.00000E+00  1.19408E-01
       2    -1     0     0   501     0  0.000000000E+00  0.000000000E+00  7.849436216E+01  7.849436216E+01  0.000000000E+00  0.00000E+00  9.000E+00
       1    -1     0     0   502     0  0.000000000E+00  0.000000000E+00 -1.664371196E+03  1.664371196E+03  0.000000000E+00  0.00000E+00  9.000E+00
      23     2     1     2     0     0 -1.047573177E+02 -5.036960022E+01 -9.983786093E+02  1.009250361E+03  9.118800000E+01  0.00000E+00  9.000E+00
     -13     1     3     3     0     0 -1.157817932E+02 -2.816199128E+01 -8.972048441E+02  9.050829049E+02  1.057000000E-01  0.00000E+00  9.000E+00
      13     1     3     3     0     0  1.102447546E+01 -2.220760894E+01 -1.011737652E+02  1.041674560E+02  1.057000000E-01  0.00000E+00  9.000E+00
       1     1     1     2   511     0  6.675311798E+01 -1.241588384E+00 -1.086882039E+02  1.275568692E+02  3.300000000E-01  0.00000E+00  9.000E+00
       2     1     1     2   502     0 -3.325730721E+01  6.639429835E+01  3.850561470E+01  8.364832694E+01  3.300000000E-01  0.00000E+00  9.000E+00
      21     1     1     2   501   511  7.126150695E+01 -1.478310975E+01 -5.173156353E+02  5.224100011E+02  1.321449896E-05  0.00000E+00  9.000E+00
</event>
<event>
      8  10001  1.06280E-02  3.42266E+02 -1.00000E+00  1.05424E-01
      -3    -1     0     0     0   501  0.000000000E+00  0.000000000E+00  1.161784112E+03  1.161784112E+03  0.000000000E+00  0.00000E+00  9.000E+00
      21    -1     0     0   502   511  0.000000000E+00  0.000000000E+00 -1.509818681E+03  1.509818681E+03  0.000000000E+00  0.00000E+00  9.000E+00
      23     2     1     2     0     0  5.105216927E+01  6.132631999E+01  8.212439104E+02  8.301349608E+02  9.118800000E+01  0.00000E+00  9.000E+00
     -13     1     3     3     0     0 -1.632810373E+01 -1.257210714E+01  1.127385501E+02  1.146065299E+02  1.057000000E-01  0.00000E+00  9.000E+00
      13     1     3     3     0     0  6.738027300E+01  7.389842713E+01  7.085053603E+02  7.155284309E+02  1.057000000E-01  0.00000E+00  9.000E+00
      -4     1     1     2     0   501 -2.863459005E+02  2.521913389E+02  4.026486147E+01  3.836899207E+02  1.500000000E+00  0.00000E+00  9.000E+00
       4     1     1     2   502     0 -5.343168702E+01 -1.297177375E+02  5.276340797E+01  1.498928412E+02  1.500000000E+00  0.00000E+00  9.000E+00
      -3     1     1     2     0   511  2.887254183E+02 -1.837999214E+02 -1.262306749E+03  1.307885070E+03  5.000000000E-01  0.00000E+00  9.000E+00
</event>
<event>
      8  10001  2.02647E-02  5.36575E+01 -1.00000E+00  1.40308E-01
      -4    -1     0     0     0   501  0.000000000E+00  0.000000000E+00  1.427287216E+02  1.427287216E+02  0.000000000E+00  0.00000E+00  9.000E+00
      -3    -1     0     0     0   502  0.000000000E+00  0.000000000E+00 -8.529049279E+01  8.529049279E+01  0.000000000E+00  0.00000E+00  9.000E+00
      23     2     1     2     0     0 -5.484706077E+01 -4.257903241E+01  6.470368149E+01  1.316168371E+02  9.118800000E+01  0.00000E+00  9.000E+00
     -13     1     3     3     0     0 -4.442273247E+01 -2.203127164E+01  8.662544710E+01  9.981350283E+01  1.057000000E-01  0.00000E+00  9.000E+00
      13     1     3     3     0     0 -1.042432830E+01 -2.054776077E+01 -2.192176561E+01  3.180333431E+01  1.057000000E-01  0.00000E+00  9.000E+00
      -3     1     1     2     0   511 -1.791753495E-01 -8.571580737E+00 -1.997847878E+00  8.817340658E+00  5.000000000E-01  0.00000E+00  9.000E+00
      -4     1     1     2     0   502  4.423299870E+01  3.308466013E+01  1.613922976E+01  5.756628915E+01  1.500000000E+00  0.00000E+00  9.000E+00
      21     1     1     2   511   501  1.079323743E+01  1.806595302E+01 -2.140683455E+01  3.001874745E+01  8.259061849E-07  0.00000E+00  9.000E+00
</event>
<event>
      8  10001  3.75623E-02  3.68982E+01 -1.00000E+00  1.50459E-01
       2    -1     0     0   501     0  0.000000000E+00  0.000000000E+00  1.021457969E+03  1.021457969E+03  0.000000000E+00  0.00000E+00  9.000E+00
       1    -1     0     0   502     0  0.000000000E+00  0.000000000E+00 -1.805428703E+01  1.805428703E+01  0.000000000E+00  0.00000E+00  9.000E+00
      23     2     1     2     0     0 -3.802303012E+01  1.044345341E+01  1.502686627E+02  1.801408862E+02  9.118800000E+01  0.00000E+00  9.000E+00
     -13     1     3     3     0     0  2.116383554E+01  2.279998921E+01  2.129885967E+01  3.770145936E+01  1.057000000E-01  0.00000E+00  9.000E+00
      13     1     3     3     0     0 -5.918686566E+01 -1.235653579E+01  1.289698031E+02  1.424394268E+02  1.057000000E-01  0.00000E+00  9.000E+00
       2     1     1     2   511     0  1.813851967E+01 -3.005676327E+00  2.307010614E+02  2.314327734E+02  3.300000000E-01  0.00000E+00  9.000E+00
       1     1     1     2   502     0  1.553676387E+01 -9.263969196E+00  6.229338045E+02  6.231964745E+02  3.300000000E-01  0.00000E+00  9.000E+00
      21     1     1     2   501   511  4.347746577E+00  1.826192111E+00 -4.998462237E-01  4.742122327E+00  6.532336638E-07  0.00000E+00  9.000E+00
</event>
<event>
      8  10001  1.18188E-02  1.21785E+02 -1.00000E+00  1.22339E-01
       2    -1     0     0   501     0  0.000000000E+00  0.000000000E+00  5.107172967E+02  5.107172967E+02  0.000000000E+00  0.00000E+00  9.000E+00
       1    -1     0     0   502     0  0.000000000E+00  0.000000000E+00 -2.272275615E+02  2.272275615E+02  0.000000000E+00  0.00000E+00  9.000E+00
      23     2     1     2     0     0 -8.786154781E+01 -1.349590403E+02  4.452417879E+02  4.821712301E+02  9.118800000E+01  0.00000E+00  9.000E+00
     -13     1     3     3     0     0  1.568727433E+01 -1.345965859E+01  9.560732681E+01  9.781628238E+01  1.057000000E-01  0.00000E+00  9.000E+00
      13     1     3     3     0     0 -1.035488221E+02 -1.214993817E+02  3.496344611E+02  3.843549478E+02  1.057000000E-01  0.00000E+00  9.000E+00
       1     1     1     2   511     0  3.471078995E+00 -7.755505714E+00  8.524756491E+00  1.204062422E+01  3.300000000E-01  0.00000E+00  9.000E+00
       2     1     1     2   502     0  5.160757757E+01  1.285911136E+02 -1.314848311E+02  1.910167173E+02  3.300000000E-01  0.00000E+00  9.000E+00
      21     1     1     2   501   511  3.278289125E+01  1.412343236E+01 -3.879197816E+01  5.271628657E+01  3.198720900E-06  0.00000E+00  9.000E+00
</event>
<event>
      8  10001  1.37295E-02  1.09274E+02 -1.00000E+00  1.24440E-01
       2    -1     0     0   501     0  0.000000000E+00  0.000000000E+00  5.615886807E+02  5.615886807E+02  0.000000000E+00  0.00000E+00  9.000E+00
      -2    -1     0     0     0   502  0.000000000E+00  0.000000000E+00 -1.693459454E+03  1.693459454E+03  0.000000000E+00  0.00000E+00  9.000E+00
      23     2     1     2     0     0 -1.485107719E+02  1.434930579E+00  5.343606184E+02  5.620623011E+02  9.118800000E+01  0.00000E+00  9.000E+00
     -13     1     3     3     0     0 -1.247878057E+02 -3.590690669E+01  4.096063266E+02  4.296960046E+02  1.057000000E-01  0.00000E+00  9.000E+00
      13     1     3     3     0     0 -2.372296614E+01  3.734183727E+01  1.247542918E+02  1.323662965E+02  1.057000000E-01  0.00000E+00  9.000E+00
       1     1     1     2   511     0 -1.078872160E+01 -4.835807510E+00  5.132550704E+00  1.289315806E+01  3.300000000E-01  0.00000E+00  9.000E+00
      -1     1     1     2     0   502  1.372697588E+02  8.673587097E+00 -1.579490876E+03  1.585468308E+03  3.300000000E-01  0.00000E+00  9.000E+00
      21     1     1     2   501   511  2.202973470E+01 -5.272710167E+00 -9.187306612E+01  9.462436769E+01  2.336015456E-06  0.00000E+00  9.000E+00
</event>
<event>
      8  10001  1.05795E-02  9.64993E+02 -1.00000E+00  9.26425E-02
       1    -1     0     0   501     0  0.000000000E+00  0.000000000E+00  1.944258704E+03  1.944258704E+03  0.000000000E+00  0.00000E+00  9.000E+00
       2    -1     0     0   502     0  0.000000000E+00  0.000000000E+00 -3.952348683E+02  3.952348683E+02  0.000000000E+00  0.00000E+00  9.000E+00
      23     2     1     2     0     0  3.701097552E+01  4.876930000E+02  1.552863938E+03  1.630618267E+03  9.118800000E+01  0.00000E+00  9.000E+00
     -13     1     3     3     0     0  5.376416805E+01  2.719843295E+02  7.693582544E+02  8.177886010E+02  1.057000000E-01  0.00000E+00  9.000E+00
      13     1     3     3     0     0 -1.675319253E+01  2.157086705E+02  7.835056832E+02  8.128296665E+02  1.057000000E-01  0.00000E+00  9.000E+00
       2     1     1     2   511     0  6.420241042E+00  3.137997554E+01  1.575808603E+02  1.608034787E+02  3.300000000E-01  0.00000E+00  9.000E+00
       1     1     1     2   502     0 -4.033910356E+01 -2.156288779E+02 -8.390085753E+01  2.348670242E+02  3.300000000E-01  0.00000E+00  9.000E+00
      21     1     1     2   501   511 -3.092113010E+00 -3.034440977E+02 -7.752010423E+01  3.132048022E+02  9.147322699E-06  0.00000E+00  9.000E+00
</event>
<event>
      8  10001  1.14847E-02  3.65145E+02 -1.00000E+00  1.04522E-01
      -4    -1     0     0     0   501  0.000000000E+00  0.000000000E+00  3.159897743E+01  3.159897743E+01  0.000000000E+00  0.00000E+00  9.000E+00
       1    -1     0     0   502     0  0.000000000E+00  0.000000000E+00 -2.109708598E+03  2.109708598E+03  0.000000000E+00  0.00000E+00  9.000E+00
      23     2     1     2     0     0 -9.512979744E+01  4.145187504E+01 -6.423138959E+02  6.570010110E+02  9.118800000E+01  0.00000E+00  9.000E+00
     -13     1     3     3     0     0 -1.089951720E-01  3.063890489E+01 -3.005858716E+02  3.021433960E+02  1.057000000E-01  0.00000E+00  9.000E+00
      13     1     3     3     0     0 -9.502080227E+01  1.081297016E+01 -3.417280243E+02  3.548576150E+02  1.057000000E-01  0.00000E+00  9.000E+00
      -4     1     1     2     0   501 -2.833013718E+01  4.662061860E-01 -1.403525120E+02  1.431918002E+02  1.500000000E+00  0.00000E+00  9.000E+00
       1     1     1     2   511     0  3.543999421E+01 -1.240306897E+01 -1.222429701E+03  1.223006260E+03  3.300000000E-01  0.00000E+00  9.000E+00
      21     1     1     2   502   511  8.801994041E+01 -2.951501225E+01 -7.301351163E+01  1.181085041E+02  6.397441800E-06  0.00000E+00  9.000E+00
</event>
<event>
      8  10001  1.41191E-02  3.82443E+01 -1.00000E+00  1.49423E-01
      -2    -1     0     0     0   501  0.000000000E+00  0.000000000E+00  7.471675443E+02  7.471675443E+02  0.000000000E+00  0.00000E+00  9.000E+00
       4    -1     0     0   502     0  0.000000000E+00  0.000000000E+00 -1.339500427E+02  1.339500427E+02  0.000000000E+00  0.00000E+00  9.000E+00
      23     2     1     2     0     0 -1.259481326E+02  1.954697323E+02  5.363570019E+01  2.554669999E+02  9.118800000E+01  0.00000E+00  9.000E+00
     -13     1     3     3     0     0 -7.832630208E+01  6.241736180E+01  5.475427661E+01  1.141445515E+02  1.057000000E-01  0.00000E+00  9.000E+00
      13     1     3     3     0     0 -4.762183051E+01  1.330523705E+02 -1.118576418E+00  1.413224484E+02  1.057000000E-01  0.00000E+00  9.000E+00
      -2     1     1     2     0   512 -3.567074501E-01 -1.060561032E-01  2.209062051E+01  2.209621919E+01  3.300000000E-01  0.00000E+00  9.000E+00
       4     1     1     2   502     0  1.215965612E+02 -2.065444870E+02  5.403211988E+02  5.910969435E+02  1.500000000E+00  0.00000E+00  9.000E+00
      21     1     1     2   512   501  4.708278815E+00  1.118081080E+01 -2.830017922E+00  1.245742433E+01  1.784161275E-06  0.00000E+00  9.000E+00
</event>
<event>
      8  10001  1.94068E-02  1.32574E+02 -1.00000E+00  1.20743E-01
       1    -1     0     0   501     0  0.000000000E+00  0.000000000E+00  4.294260008E+02  4.294260008E+02  0.000000000E+00  0.00000E+00  9.000E+00
      -2    -1     0     0     0   502  0.000000000E+00  0.000000000E+00 -1.418166107E+02  1.418166107E+02  0.000000000E+00  0.00000E+00  9.000E+00
      23     2     1     2     0     0 -1.148847195E+01 -6.940420106E+01  3.788504570E+02  3.959695042E+02  9.118800000E+01  0.00000E+00  9.000E+00
     -13     1     3     3     0     0 -4.758380570E+01 -2.321893896E+01  1.312928522E+02  1.415668108E+02  1.057000000E-01  0.00000E+00  9.000E+00
      13     1     3     3     0     0  3.609533375E+01 -4.618526210E+01  2.475576048E+02  2.544026934E+02  1.057000000E-01  0.00000E+00  9.000E+00
       1     1     1     2   511     0 -9.185803888E+00 -2.445526485E+01  8.461649651E+00  2.746174406E+01  3.300000000E-01  0.00000E+00  9.000E+00
      -2     1     1     2     0   502  2.557859244E+01  7.381955101E+01 -4.690317054E+01  9.112412858E+01  3.300000000E-01  0.00000E+00  9.000E+00
      21     1     1     2   501   511 -4.904316604E+00  2.003991490E+01 -5.279954606E+01  5.668723467E+01  3.814697266E-06  0.00000E+00  9.000E+00
</event>
<event>
      8  10001  1.11290E-02  2.07553E+02 -1.00000E+00  1.12973E-01
       2    -1     0     0   501     0  0.000000000E+00  0.000000000E+00  1.436786360E+03  1.436786360E+03  0.000000000E+00  0.00000E+00  9.000E+00
      -2    -1     0     0     0   502  0.000000000E+00  0.000000000E+00 -4.915105759E+01  4.915105759E+01  0.000000000E+00  0.00000E+00  9.000E+00
      23     2     1     2     0     0 -1.639609298E+01  5.145241411E+01  7.222145147E+02  7.299487923E+02  9.118800000E+01  0.00000E+00  9.000E+00
     -13     1     3     3     0     0  2.324656529E+01 -1.565460125E+01  1.955485661E+02  1.975467596E+02  1.057000000E-01  0.00000E+00  9.000E+00
      13     1     3     3     0     0 -3.964265828E+01  6.710701536E+01  5.266659486E+02  5.324020327E+02  1.057000000E-01  0.00000E+00  9.000E+00
       1     1     1     2   511     0 -3.679215764E+01 -2.348131912E+00  4.904641280E+01  6.135826021E+01  3.300000000E-01  0.00000E+00  9.000E+00
      -1     1     1     2     0   502  3.339571854E+01 -1.125659308E+02  6.170786964E+02  6.281501327E+02  3.300000000E-01  0.00000E+00  9.000E+00
      21     1     1     2   501   511  1.979253209E+01  6.346164860E+01 -7.043219117E-01  6.648023194E+01  4.609784461E-06  0.00000E+00  9.000E+00
</event>
<event>
      8  10001  1.18418E-02  2.14132E+02 -1.00000E+00  1.12470E-01
       2    -1     0     0   501     0  0.000000000E+00  0.000000000E+00  3.049384645E+02  3.049384645E+02  0.000000000E+00  0.00000E+00  9.000E+00
       3    -1     0     0   502     0  0.000000000E+00  0.000000000E+00 -4.654952787E+02  4.654952787E+02  0.000000000E+00  0.00000E+00  9.000E+00
      23     2     1     2     0     0 -1.896911251E+01  1.320519736E+02 -4.239171383E+02  4.536722853E+02  9.118800000E+01  0.00000E+00  9.000E+00
     -13     1     3     3     0     0 -2.677135481E+01  4.255329542E+01 -5.739205936E+01  7.629775907E+01  1.057000000E-01  0.00000E+00  9.000E+00
      13     1     3     3     0     0  7.802242297E+00  8.949867819E+01 -3.665250790E+02  3.773745263E+02  1.057000000E-01  0.00000E+00  9.000E+00
       1     1     1     2   501     0  1.490774089E+01 -9.248827665E+01  1.857054593E+02  2.079974725E+02  3.300000000E-01  0.00000E+00  9.000E+00
       4     1     1     2   511     0 -2.104376335E+00  9.987284211E+00 -5.558744220E+00  1.171852734E+01  1.500000000E+00  0.00000E+00  9.000E+00
      21     1     1     2   502   511  6.165747951E+00 -4.955098117E+01  8.321360913E+01  9.704545804E+01  0.000000000E+00  0.00000E+00  9.000E+00
</event>
<event>
      8  10001  1.05878E-02  2.45995E+02 -1.00000E+00  1.10288E-01
       1    -1     0     0   501     0  0.000000000E+00  0.000000000E+00  1.795810957E+02  1.795810957E+02  0.000000000E+00  0.00000E+00  9.000E+00
       2    -1     0     0   502     0  0.000000000E+00  0.000000000E+00 -5.015025843E+02  5.015025843E+02  0.000000000E+00  0.00000E+00  9.000E+00
      23     2     1     2     0     0 -2.055383946E+00 -5.109664178E+01 -1.282062092E+01  1.053314344E+02  9.118800000E+01  0.00000E+00  9.000E+00
     -13     1     3     3     0     0 -1.276996945E+01  2.410365991E+01 -1.082005662E+01  2.934524388E+01  1.057000000E-01  0.00000E+00  9.000E+00
      13     1     3     3     0     0  1.071458550E+01 -7.520030169E+01 -2.000564306E+00  7.598619050E+01  1.057000000E-01  0.00000E+00  9.000E+00
       2     1     1     2   501     0 -1.350593753E+02  2.848451436E+01 -1.086735793E+02  1.756771418E+02  3.300000000E-01  0.00000E+00  9.000E+00
       1     1     1     2   512     0  1.556529604E+02  7.213458583E+01 -2.655758990E+02  3.161675340E+02  3.300000000E-01  0.00000E+00  9.000E+00
      21     1     1     2   502   512 -1.853820110E+01 -4.952245841E+01  6.514861066E+01  8.390756973E+01  1.651812370E-06  0.00000E+00  9.000E+00
</event>
<event>
      8  10001  1.10403E-02  1.80630E+02 -1.00000E+00  1.15270E-01
       2    -1     0     0   501     0  0.000000000E+00  0.000000000E+00  2.576667256E+02  2.576667256E+02  0.000000000E+00  0.00000E+00  9.000E+00
       2    -1     0     0   502     0  0.000000000E+00  0.000000000E+00 -3.578872322E+02  3.578872322E+02  0.000000000E+00  0.00000E+00  9.000E+00
      23     2     1     2     0     0 -5.625955112E+01 -7.793342569E+01  1.087675629E+02  1.714187563E+02  9.118800000E+01  0.00000E+00  9.000E+00
     -13     1     3     3     0     0 -3.975257965E+00 -4.987862557E+01  9.948734634E+01  1.113616775E+02  1.057000000E-01  0.00000E+00  9.000E+00
      13     1     3     3     0     0 -5.228429316E+01 -2.805480012E+01  9.280216544E+00  6.005707879E+01  1.057000000E-01  0.00000E+00  9.000E+00
       2     1     1     2   501     0  2.851302954E+01 -3.620229142E+01 -2.291355252E+02  2.337237613E+02  3.300000000E-01  0.00000E+00  9.000E+00
       2     1     1     2   511     0 -7.235139881E+00  9.104391687E+01 -6.729190679E+01  1.134444872E+02  3.300000000E-01  0.00000E+00  9.000E+00
      21     1     1     2   502   511  3.498166146E+01  2.309180024E+01  8.743936249E+01  9.696695308E+01  2.132480600E-06  0.00000E+00  9.000E+00
</event>
<event>
      8  10001  1.27989E-01  4.49671E+01 -1.00000E+00  1.44917E-01
       2    -1     0     0   501     0  0.000000000E+00  0.000000000E+00  8.306945364E+02  8.306945364E+02  0.000000000E+00  0.00000E+00  9.000E+00
      -2    -1     0     0     0   502  0.000000000E+00  0.000000000E+00 -1.756680408E+01  1.756680408E+01  0.000000000E+00  0.00000E+00  9.000E+00
      23     2     1     2     0     0 -2.294044750E+00 -2.689388768E+00  5.623012804E+02  5.696582104E+02  9.118800000E+01  0.00000E+00  9.000E+00
     -13     1     3     3     0     0 -4.439953641E+00 -1.544076462E+01  1.431340742E+01  2.151778810E+01  1.057000000E-01  0.00000E+00  9.000E+00
      13     1     3     3     0     0  2.145908891E+00  1.275137585E+01  5.479878729E+02  5.481404223E+02  1.057000000E-01  0.00000E+00  9.000E+00
       2     1     1     2   512     0 -1.924588891E+00 -4.388801281E+00  2.109874678E+01  2.163866065E+01  3.300000000E-01  0.00000E+00  9.000E+00
      -2     1     1     2     0   502 -4.694780995E+00  9.478749024E+00 -1.146069185E+01  1.559948747E+01  3.300000000E-01  0.00000E+00  9.000E+00
      21     1     1     2   501   512  8.913414636E+00 -2.400558975E+00  2.411883970E+02  2.413649819E+02  6.031565972E-06  0.00000E+00  9.000E+00
</event>
<event>
      8  10001  1.11718E-02  2.22273E+02 -1.00000E+00  1.11875E-01
      -2    -1     0     0     0   501  0.000000000E+00  0.000000000E+00  1.519344879E+02  1.519344879E+02  0.000000000E+00  0.00000E+00  9.000E+00
      -4    -1     0     0     0   502  0.000000000E+00  0.000000000E+00 -2.672363698E+02  2.672363698E+02  0.000000000E+00  0.00000E+00  9.000E+00
      23     2     1     2     0     0  3.958436539E+01  2.827304355E+01 -1.217705468E+02  1.597172639E+02  9.118800000E+01  0.00000E+00  9.000E+00
     -13     1     3     3     0     0  2.419989833E+01  5.704645600E+01 -1.075500826E+02  1.241247947E+02  1.057000000E-01  0.00000E+00  9.000E+00
      13     1     3     3     0     0  1.538446706E+01 -2.877341244E+01 -1.422046425E+01  3.559246924E+01  1.057000000E-01  0.00000E+00  9.000E+00
      -2     1     1     2     0   511  9.995581487E-01  1.508030497E+00  4.887799624E+00  5.222332586E+00  3.300000000E-01  0.00000E+00  9.000E+00
      -4     1     1     2     0   502  2.491058938E+01  5.674856170E+01  9.338384149E+01  1.120880394E+02  1.500000000E+00  0.00000E+00  9.000E+00
      21     1     1     2   511   501 -6.549451292E+01 -8.652963575E+01 -9.180297617E+01  1.421432219E+02  5.722045898E-06  0.00000E+00  9.000E+00
</event>
<event>
      8  10001  2.20648E-02  3.27981E+02 -1.00000E+00  1.06027E-01
      -2    -1     0     0     0   501  0.000000000E+00  0.000000000E+00  5.645863220E+01  5.645863220E+01  0.000000000E+00  0.00000E+00  9.000E+00
       2    -1     0     0   502     0  0.000000000E+00  0.000000000E+00 -2.869393051E+03  2.869393051E+03  0.000000000E+00  0.00000E+00  9.000E+00
      23     2     1     2     0     0 -9.527532191E+01 -5.301024757E+01 -4.673454354E+01  1.496223319E+02  9.118800000E+01  0.00000E+00  9.000E+00
     -13     1     3     3     0     0 -7.787519037E+01 -8.072174073E+00 -6.112790664E+01  9.932943880E+01  1.057000000E-01  0.00000E+00  9.000E+00
      13     1     3     3     0     0 -1.740013154E+01 -4.493807350E+01  1.439336309E+01  5.029289315E+01  1.057000000E-01  0.00000E+00  9.000E+00
      -1     1     1     2     0   511  4.214867779E+00  1.040965021E+01 -8.117064226E+00  1.386079217E+01  3.300000000E-01  0.00000E+00  9.000E+00
       1     1     1     2   502     0  1.050215445E+02  4.529601847E+01 -1.554552856E+03  1.558754613E+03  3.300000000E-01  0.00000E+00  9.000E+00
      21     1     1     2   511   501 -1.396109039E+01 -2.695421102E+00 -1.203529956E+03  1.203613946E+03  4.037096117E-05  0.00000E+00  9.000E+00
</event>
<event>
      8  10001  1.32013E-02  1.29934E+02 -1.00000E+00  1.21117E-01
      -1    -1     0     0     0   501  0.000000000E+00  0.000000000E+00  2.158300192E+02  2.158300192E+02  0.000000000E+00  0.00000E+00  9.000E+00
      -2    -1     0     0     0   502  0.000000000E+00  0.000000000E+00 -2.080337210E+02  2.080337210E+02  0.000000000E+00  0.00000E+00  9.000E+00
      23     2     1     2     0     0  2.314577640E+01  8.061465158E+01 -1.673595380E+02  2.082280368E+02  9.118800000E+01  0.00000E+00  9.000E+00
     -13     1     3     3     0     0 -1.598945944E+01  6.158691332E+01 -4.384565667E+01  7.727265678E+01  1.057000000E-01  0.00000E+00  9.000E+00
      13     1     3     3     0     0  3.913523584E+01  1.902773826E+01 -1.235138813E+02  1.309553800E+02  1.057000000E-01  0.00000E+00  9.000E+00
      -2     1     1     2     0   501  2.193004546E+00 -6.592130579E+01  8.311382880E+01  1.061058211E+02  3.300000000E-01  0.00000E+00  9.000E+00
      -1     1     1     2     0   511  1.321177797E+01 -5.137402874E-01  6.719569189E+00  1.483497611E+01  3.300000000E-01  0.00000E+00  9.000E+00
      21     1     1     2   511   502 -3.855055891E+01 -1.417960550E+01  8.532243815E+01  9.469490618E+01  1.651812370E-06  0.00000E+00  9.000E+00
</event>
<event>
      8  10001  1.50930E-02  3.02643E+02 -1.00000E+00  1.07184E-01
       1    -1     0     0   501     0  0.000000000E+00  0.000000000E+00  1.874458042E+03  1.874458042E+03  0.000000000E+00  0.00000E+00  9.000E+00
      -1    -1     0     0     0   502  0.000000000E+00  0.000000000E+00 -6.945957757E+01  6.945957757E+01  0.000000000E+00  0.00000E+00  9.000E+00
      23     2     1     2     0     0 -4.962644140E+01  1.442711494E+02  1.651937032E+03  1.661471684E+03  9.118800000E+01  0.00000E+00  9.000E+00
     -13     1     3     3     0     0 -6.100943206E+01  1.045186701E+02  8.621148388E+02  8.705678087E+02  1.057000000E-01  0.00000E+00  9.000E+00
      13     1     3     3     0     0  1.138299066E+01  3.975247935E+01  7.898221929E+02  7.909038752E+02  1.057000000E-01  0.00000E+00  9.000E+00
       2     1     1     2   512     0  2.984160994E+00  3.971737537E+00  8.587176532E+01  8.601598047E+01  3.300000000E-01  0.00000E+00  9.000E+00
      -2     1     1     2     0   502  3.780688810E+01 -1.291906943E+02  9.265969771E+01  1.634182510E+02  3.300000000E-01  0.00000E+00  9.000E+00
      21     1     1     2   501   512  8.835392313E+00 -1.905219263E+01 -2.547003005E+01  3.301170447E+01  5.190739884E-06  0.00000E+00  9.000E+00
</event>
<event>
      8  10001  1.81048E-02  7.41785E+01 -1.00000E+00  1.32597E-01
       2    -1     0     0   501     0  0.000000000E+00  0.000000000E+00  2.238799921E+02  2.238799921E+02  0.000000000E+00  0.00000E+00  9.000E+00
       3    -1     0     0   502     0  0.000000000E+00  0.000000000E+00 -1.341851959E+02  1.341851959E+02  0.000000000E+00  0.00000E+00  9.000E+00
      23     2     1     2     0     0  2.492612525E+01  7.938315412E+00 -8.503110634E+01  1.273965029E+02  9.118800000E+01  0.00000E+00  9.000E+00
     -13     1     3     3     0     0 -2.022626738E+01  6.200232545E+00  9.063036605E+00  2.301509463E+01  1.057000000E-01  0.00000E+00  9.000E+00
      13     1     3     3     0     0  4.515239263E+01  1.738082867E+00 -9.409414295E+01  1.043814083E+02  1.057000000E-01  0.00000E+00  9.000E+00
       2     1     1     2   501     0  2.342963565E+00 -1.388401985E+01  1.748199607E+02  1.753863822E+02  3.300000000E-01  0.00000E+00  9.000E+00
       3     1     1     2   511     0 -2.636444743E+00 -8.114653392E+00  1.917461725E+01  2.099319859E+01  5.000000000E-01  0.00000E+00  9.000E+00
      21     1     1     2   502   511 -2.463264407E+01  1.406035783E+01 -1.926867542E+01  3.428910423E+01  2.185142372E-06  0.00000E+00  9.000E+00
</event>
<event>
      8  10001  1.16862E-02  1.12963E+02 -1.00000E+00  1.23789E-01
       4    -1     0     0   501     0  0.000000000E+00  0.000000000E+00  1.212929141E+02  1.212929141E+02  0.000000000E+00  0.00000E+00  9.000E+00
       1    -1     0     0   502     0  0.000000000E+00  0.000000000E+00 -3.960055071E+02  3.960055071E+02  0.000000000E+00  0.00000E+00  9.000E+00
      23     2     1     2     0     0  1.085900658E+02 -7.373477201E+00 -1.045405910E+02  1.763240116E+02  9.118800000E+01  0.00000E+00  9.000E+00
     -13     1     3     3     0     0 -1.405127912E+01  8.422929507E+00 -3.775651737E+00  1.681222487E+01  1.057000000E-01  0.00000E+00  9.000E+00
      13     1     3     3     0     0  1.226413450E+02 -1.579640671E+01 -1.007649393E+02  1.595117868E+02  1.057000000E-01  0.00000E+00  9.000E+00
       4     1     1     2   501     0 -1.376538459E+02 -1.855421347E+01  1.513706256E+01  1.397290979E+02  1.500000000E+00  0.00000E+00  9.000E+00
       1     1     1     2   512     0  1.178538593E+01  2.967676444E+01 -2.661703451E+01  4.157139757E+01  3.300000000E-01  0.00000E+00  9.000E+00
      21     1     1     2   502   512  1.727839417E+01 -3.749073776E+00 -1.586920300E+02  1.596739141E+02  1.907348633E-06  0.00000E+00  9.000E+00
</event>
<event>
      8  10001  1.23326E-02  6.15259E+01 -1.00000E+00  1.36940E-01
      -1    -1     0     0     0   501  0.000000000E+00  0.000000000E+00  1.151024736E+02  1.151024736E+02  0.000000000E+00  0.00000E+00  9.000E+00
       2    -1     0     0   502     0  0.000000000E+00  0.000000000E+00 -1.238135606E+02  1.238135606E+02  0.000000000E+00  0.00000E+00  9.000E+00
      23     2     1     2     0     0 -5.387593900E+01 -1.737226512E+01  1.876786466E+01  1.089582328E+02  9.118800000E+01  0.00000E+00  9.000E+00
     -13     1     3     3     0     0  1.452501062E+01  2.349476272E+01  5.920974456E+00  2.824975964E+01  1.057000000E-01  0.00000E+00  9.000E+00
      13     1     3     3     0     0 -6.840094962E+01 -4.086702784E+01  1.284689021E+01  8.070847313E+01  1.057000000E-01  0.00000E+00  9.000E+00
      -1     1     1     2     0   501  3.069345385E+01 -2.208084846E+01 -1.836519248E+01  4.203618884E+01  3.300000000E-01  0.00000E+00  9.000E+00
       2     1     1     2   511     0  1.737272419E+01  2.928844119E+01 -4.138322969E+01  5.359388895E+01  3.300000000E-01  0.00000E+00  9.000E+00
      21     1     1     2   502   511  5.809760966E+00  1.016467239E+01  3.226947046E+01  3.432772365E+01  6.743495762E-07  0.00000E+00  9.000E+00
</event>
<event>
      8  10001  1.14708E-02  2.72883E+02 -1.00000E+00  1.08712E-01
       3    -1     0     0   501     0  0.000000000E+00  0.000000000E+00  1.526585282E+02  1.526585282E+02  0.000000000E+00  0.00000E+00  9.000E+00
       2    -1     0     0   502     0  0.000000000E+00  0.000000000E+00 -4.672749196E+02  4.672749196E+02  0.000000000E+00  0.00000E+00  9.000E+00
      23     2     1     2     0     0  1.685965204E+02 -2.749927818E+01 -2.211972779E+02  2.939804145E+02  9.118800000E+01  0.00000E+00  9.000E+00
     -13     1     3     3     0     0  5.012479879E+01 -1.052196269E+01 -1.143740831E+01  5.247887798E+01  1.057000000E-01  0.00000E+00  9.000E+00
      13     1     3     3     0     0  1.184717216E+02 -1.697731549E+01 -2.097598696E+02  2.415015365E+02  1.057000000E-01  0.00000E+00  9.000E+00
       4     1     1     2   501     0 -1.885409508E+01 -4.402031867E+01 -5.491223407E+01  7.287570794E+01  1.500000000E+00  0.00000E+00  9.000E+00
       1     1     1     2   512     0 -5.483533893E+01  4.354237084E+01 -1.104269071E+02  1.307557386E+02  3.300000000E-01  0.00000E+00  9.000E+00
      21     1     1     2   502   512 -9.490708640E+01  2.797722600E+01  7.192002769E+01  1.223215868E+02  1.907348633E-06  0.00000E+00  9.000E+00
</event>
<event>
      8  10001  1.07154E-02  7.06448E+02 -1.00000E+00  9.61443E-02
       1    -1     0     0   501     0  0.000000000E+00  0.000000000E+00  9.852421929E+02  9.852421929E+02  0.000000000E+00  0.00000E+00  9.000E+00
       2    -1     0     0   502     0  0.000000000E+00  0.000000000E+00 -3.845033239E+02  3.845033239E+02  0.000000000E+00  0.00000E+00  9.000E+00
      23     2     1     2     0     0  4.106686994E+02 -7.141112701E+01  1.198056383E+02  4.431895441E+02  9.118800000E+01  0.00000E+00  9.000E+00
     -13     1     3     3     0     0  2.296416942E+02 -7.649247249E+01  4.017760060E+01  2.453582215E+02  1.057000000E-01  0.00000E+00  9.000E+00
      13     1     3     3     0     0  1.810270052E+02  5.081345484E+00  7.962803772E+01  1.978313227E+02  1.057000000E-01  0.00000E+00  9.000E+00
       2     1     1     2   501     0 -1.201851903E+02 -3.957884659E+01 -6.031491595E+01  1.401747590E+02  3.300000000E-01  0.00000E+00  9.000E+00
       1     1     1     2   511     0 -1.096776368E+02  3.953001563E+01 -7.604714235E+01  1.391944069E+02  3.300000000E-01  0.00000E+00  9.000E+00
      21     1     1     2   502   511 -1.808058722E+02  7.145995797E+01  6.172952890E+02  6.471868068E+02  1.078959322E-05  0.00000E+00  9.000E+00
</event>
<event>
      8  10001  1.18225E-02  3.09534E+02 -1.00000E+00  1.06858E-01
      -4    -1     0     0     0   501  0.000000000E+00  0.000000000E+00  1.090182017E+03  1.090182017E+03  0.000000000E+00  0.00000E+00  9.000E+00
      -3    -1     0     0     0   502  0.000000000E+00  0.000000000E+00 -7.476009855E+01  7.476009855E+01  0.000000000E+00  0.00000E+00  9.000E+00
      23     2     1     2     0     0 -5.705183501E+01  2.579019105E+01  5.301543518E+02  5.415708023E+02  9.118800000E+01  0.00000E+00  9.000E+00
     -13     1     3     3     0     0  9.208536570E+00 -3.994252613E+00  4.639449553E+00  1.105833913E+01  1.057000000E-01  0.00000E+00  9.000E+00
      13     1     3     3     0     0 -6.626037158E+01  2.978444367E+01  5.255149023E+02  5.305124632E+02  1.057000000E-01  0.00000E+00  9.000E+00
      -3     1     1     2     0   501 -2.574399261E+01  9.860482726E+00 -5.383870449E+01  6.048833256E+01  5.000000000E-01  0.00000E+00  9.000E+00
      -4     1     1     2     0   512 -2.105362126E+00  8.786307797E+00 -4.978150623E+00  1.042419004E+01  1.500000000E+00  0.00000E+00  9.000E+00
      21     1     1     2   512   502  8.490118975E+01 -4.443698158E+01  5.440844222E+02  5.524587911E+02  7.629394531E-06  0.00000E+00  9.000E+00
</event>
<event>
      8  10001  1.16376E-02  1.20944E+02 -1.00000E+00  1.22471E-01
      -4    -1     0     0     0   501  0.000000000E+00  0.000000000E+00  2.235590439E+01  2.235590439E+01  0.000000000E+00  0.00000E+00  9.000E+00
       2    -1     0     0   502     0  0.000000000E+00  0.000000000E+00 -1.040329333E+03  1.040329333E+03  0.000000000E+00  0.00000E+00  9.000E+00
      23     2     1     2     0     0 -9.951037003E+01 -3.611357478E+01 -3.047326182E+02  3.352368177E+02  9.118800000E+01  0.00000E+00  9.000E+00
     -13     1     3     3     0     0 -1.785126546E+01 -3.383283218E+01 -1.934093594E+02  1.971560795E+02  1.057000000E-01  0.00000E+00  9.000E+00
      13     1     3     3     0     0 -8.165910457E+01 -2.280742600E+00 -1.113232588E+02  1.380807382E+02  1.057000000E-01  0.00000E+00  9.000E+00
      -4     1     1     2     0   501  2.947790336E+01  4.445273973E+01 -2.849549095E+02  2.899078186E+02  1.500000000E+00  0.00000E+00  9.000E+00
       2     1     1     2   511     0 -6.533735127E+00 -2.379303578E+00 -1.061028758E+02  1.063309923E+02  3.300000000E-01  0.00000E+00  9.000E+00
      21     1     1     2   502   511  7.656620180E+01 -5.959861374E+00 -3.221830250E+02  3.312096085E+02  3.814697266E-06  0.00000E+00  9.000E+00
</event>
<event>
      8  10001  1.07052E-02  8.93929E+02 -1.00000E+00  9.34772E-02
       1    -1     0     0   501     0  0.000000000E+00  0.000000000E+00  8.514774738E+02  8.514774738E+02  0.000000000E+00  0.00000E+00  9.000E+00
       2    -1     0     0   502     0  0.000000000E+00  0.000000000E+00 -9.736601707E+02  9.736601707E+02  0.000000000E+00  0.00000E+00  9.000E+00
      23     2     1     2     0     0 -1.372802751E+02 -1.291425241E+02  2.690868257E+02  3.409496100E+02  9.118800000E+01  0.00000E+00  9.000E+00
     -13     1     3     3     0     0 -1.380534689E+02 -8.683874003E+01  2.376803678E+02  2.882563016E+02  1.057000000E-01  0.00000E+00  9.000E+00
      13     1     3     3     0     0  7.731937921E-01 -4.230378409E+01  3.140645796E+01  5.269330841E+01  1.057000000E-01  0.00000E+00  9.000E+00
       1     1     1     2   512     0  7.018414942E+01 -5.266730010E+01 -4.041502001E+01  9.660818843E+01  3.300000000E-01  0.00000E+00  9.000E+00
       2     1     1     2   502     0 -4.528584833E+01  1.032879925E+02 -8.563901682E+02  8.637843751E+02  3.300000000E-01  0.00000E+00  9.000E+00
      21     1     1     2   501   512  1.123819740E+02  7.852183176E+01  5.055356656E+02  5.237954709E+02  1.206313194E-05  0.00000E+00  9.000E+00
</event>
<event>
      8  10001  1.05386E-02  6.06933E+02 -1.00000E+00  9.79485E-02
      -2    -1     0     0     0   501  0.000000000E+00  0.000000000E+00  4.954113265E+02  4.954113265E+02  0.000000000E+00  0.00000E+00  9.000E+00
      -2    -1     0     0     0   502  0.000000000E+00  0.000000000E+00 -5.225371118E+02  5.225371118E+02  0.000000000E+00  0.00000E+00  9.000E+00
      23     2     1     2     0     0  4.786674672E+01 -6.093916197E+01 -2.132388380E+01  1.215514964E+02  9.118800000E+01  0.00000E+00  9.000E+00
     -13     1     3     3     0     0  3.294287378E+01  1.258902547E+01 -2.963541504E+01  4.606501375E+01  1.057000000E-01  0.00000E+00  9.000E+00
      13     1     3     3     0     0  1.492387294E+01 -7.352818744E+01  8.311531240E+00  7.548648260E+01  1.057000000E-01  0.00000E+00  9.000E+00
      -2     1     1     2     0   501 -1.756871179E+02  3.443563098E+01  1.013964250E+02  2.057501397E+02  3.300000000E-01  0.00000E+00  9.000E+00
      -2     1     1     2     0   511  1.369586491E+01  1.591219038E+01 -3.873695503E+02  3.879382063E+02  3.300000000E-01  0.00000E+00  9.000E+00
      21     1     1     2   511   502  1.141245063E+02  1.059134061E+01  2.801712237E+02  3.027085959E+02  1.009274029E-05  0.00000E+00  9.000E+00
</event>
<event>
      8  10001  1.07862E-02  5.03163E+02 -1.00000E+00  1.00274E-01
       2    -1     0     0   501     0  0.000000000E+00  0.000000000E+00  9.889008157E+01  9.889008157E+01  0.000000000E+00  0.00000E+00  9.000E+00
       1    -1     0     0   502     0  0.000000000E+00  0.000000000E+00 -1.781896569E+03  1.781896569E+03  0.000000000E+00  0.00000E+00  9.000E+00
      23     2     1     2     0     0 -1.302074797E+02 -5.956854592E+01 -2.978172217E+02  3.428013249E+02  9.118800000E+01  0.00000E+00  9.000E+00
     -13     1     3     3     0     0 -6.808177250E+01 -5.653028171E+01 -2.473493032E+02  2.627022830E+02  1.057000000E-01  0.00000E+00  9.000E+00
      13     1     3     3     0     0 -6.212570717E+01 -3.038264211E+00 -5.046791847E+01  8.009904187E+01  1.057000000E-01  0.00000E+00  9.000E+00
       2     1     1     2   501     0  1.736071236E+02  1.204548086E+02 -1.163670383E+02  2.412264305E+02  3.300000000E-01  0.00000E+00  9.000E+00
       1     1     1     2   512     0 -3.834475730E+01 -4.738127919E+01 -5.277563995E+01  8.062681379E+01  3.300000000E-01  0.00000E+00  9.000E+00
      21     1     1     2   502   512 -5.054886666E+00 -1.350498345E+01 -1.216046587E+03  1.216132081E+03  4.315837288E-05  0.00000E+00  9.000E+00
</event>
<event>
      8  10001  1.26252E-02  1.08510E+01 -1.00000E+00  1.97696E-01
      21    -1     0     0   511   501  0.000000000E+00  0.000000000E+00  1.728972098E+02  1.728972098E+02  0.000000000E+00  0.00000E+00  9.000E+00
       2    -1     0     0   502     0  0.000000000E+00  0.000000000E+00 -7.350973281E+02  7.350973281E+02  0.000000000E+00  0.00000E+00  9.000E+00
      23     2     1     2     0     0 -6.365329322E+01  1.004555702E+02 -6.747083187E+02  6.911509459E+02  9.118800000E+01  0.00000E+00  9.000E+00
     -13     1     3     3     0     0 -3.726595761E+01 -6.426970307E+00 -1.280593656E+02  1.335262889E+02  1.057000000E-01  0.00000E+00  9.000E+00
      13     1     3     3     0     0 -2.638733561E+01  1.068825405E+02 -5.466489532E+02  5.576246570E+02  1.057000000E-01  0.00000E+00  9.000E+00
      -3     1     1     2     0   501  2.942511246E+01 -1.937394240E+01  7.126554603E+00  3.594752659E+01  5.000000000E-01  0.00000E+00  9.000E+00
       1     1     1     2   502     0  3.995680612E+01 -9.029554659E+01  1.244754597E+02  1.588838603E+02  3.300000000E-01  0.00000E+00  9.000E+00
       4     1     1     2   511     0 -5.728625368E+00  9.213918827E+00 -1.909381384E+01  2.201220515E+01  1.500000000E+00  0.00000E+00  9.000E+00
</event>
<event>
      8  10001  2.10501E-02  9.04103E+01 -1.00000E+00  1.28298E-01
       1    -1     0     0   501     0  0.000000000E+00  0.000000000E+00  7.289741289E+01  7.289741289E+01  0.000000000E+00  0.00000E+00  9.000E+00
       2    -1     0     0   502     0  0.000000000E+00  0.000000000E+00 -1.642854164E+03  1.642854164E+03  0.000000000E+00  0.00000E+00  9.000E+00
      23     2     1     2     0     0 -1.423734366E+02 -3.311227006E+01 -5.202128389E+01  1.799668947E+02  9.118800000E+01  0.00000E+00  9.000E+00
     -13     1     3     3     0     0 -5.417742928E+01 -3.246227323E+00 -6.638709308E+01  8.574957222E+01  1.057000000E-01  0.00000E+00  9.000E+00
      13     1     3     3     0     0 -8.819600731E+01 -2.986604274E+01  1.436580919E+01  9.421732250E+01  1.057000000E-01  0.00000E+00  9.000E+00
       1     1     1     2   511     0 -1.963422839E+01 -3.302944150E+01 -1.508267904E+02  1.556447125E+02  3.300000000E-01  0.00000E+00  9.000E+00
       2     1     1     2   502     0  1.532966964E+02  3.774809452E+01 -1.076064259E+03  1.087584109E+03  3.300000000E-01  0.00000E+00  9.000E+00
      21     1     1     2   501   511  8.710968616E+00  2.839361704E+01 -2.910444174E+02  2.925558602E+02  1.572839976E-05  0.00000E+00  9.000E+00
</event>
<event>
      8  10001  1.43453E-02  3.30796E+01 -1.00000E+00  1.53712E-01
       1    -1     0     0   501     0  0.000000000E+00  0.000000000E+00  1.794410796E+02  1.794410796E+02  0.000000000E+00  0.00000E+00  9.000E+00
       2    -1     0     0   502     0  0.000000000E+00  0.000000000E+00 -4.867895536E+02  4.867895536E+02  0.000000000E+00  0.00000E+00  9.000E+00
      23     2     1     2     0     0  1.388912397E+02  1.431063338E+02  7.220485560E+01  2.308657440E+02  9.118800000E+01  0.00000E+00  9.000E+00
     -13     1     3     3     0     0  9.795952504E+01  4.006905971E+01  5.292245057E+01  1.183317161E+02  1.057000000E-01  0.00000E+00  9.000E+00
      13     1     3     3     0     0  4.093171464E+01  1.030372741E+02  1.928240503E+01  1.125340279E+02  1.057000000E-01  0.00000E+00  9.000E+00
       1     1     1     2   511     0  8.758437086E+00 -1.006610463E+01 -1.719918857E+01  2.177056890E+01  3.300000000E-01  0.00000E+00  9.000E+00
       2     1     1     2   502     0 -1.314527240E+02 -1.243973805E+02 -3.260271559E+02  3.728918639E+02  3.300000000E-01  0.00000E+00  9.000E+00
      21     1     1     2   501   511 -1.619695276E+01 -8.642848668E+00 -3.632698510E+01  4.070245641E+01  1.261592536E-06  0.00000E+00  9.000E+00
</event>
<event>
      8  10001  1.09924E-02  9.61254E+01 -1.00000E+00  1.27024E-01
       2    -1     0     0   501     0  0.000000000E+00  0.000000000E+00  1.494864448E+02  1.494864448E+02  0.000000000E+00  0.00000E+00  9.000E+00
       1    -1     0     0   502     0  0.000000000E+00  0.000000000E+00 -1.924381358E+02  1.924381358E+02  0.000000000E+00  0.00000E+00  9.000E+00
      23     2     1     2     0     0 -6.172243084E+01  4.199103706E+00 -8.235110593E+01  1.375654278E+02  9.118800000E+01  0.00000E+00  9.000E+00
     -13     1     3     3     0     0  1.571145154E+01  2.500447935E+01 -2.803857961E+01  4.072157678E+01  1.057000000E-01  0.00000E+00  9.000E+00
      13     1     3     3     0     0 -7.743388238E+01 -2.080537564E+01 -5.431252632E+01  9.684385104E+01  1.057000000E-01  0.00000E+00  9.000E+00
       1     1     1     2   501     0  1.012368788E+02  1.342174846E+01  3.196717187E+01  1.070096161E+02  3.300000000E-01  0.00000E+00  9.000E+00
       2     1     1     2   511     0 -2.570154947E+01 -1.557085164E+01 -3.878697192E+01  4.906688452E+01  3.300000000E-01  0.00000E+00  9.000E+00
      21     1     1     2   502   511 -1.381289853E+01 -2.050000528E+00  4.621921497E+01  4.828265217E+01  1.651812370E-06  0.00000E+00  9.000E+00
</event>
<event>
      8  10001  5.55754E-02  3.71786E+01 -1.00000E+00  1.50239E-01
       2    -1     0     0   501     0  0.000000000E+00  0.000000000E+00  5.103650253E+01  5.103650253E+01  0.000000000E+00  0.00000E+00  9.000E+00
      -2    -1     0     0     0   502  0.000000000E+00  0.000000000E+00 -2.589947931E+02  2.589947931E+02  0.000000000E+00  0.00000E+00  9.000E+00
      23     2     1     2     0     0  3.054027893E+01  4.740923491E+01 -8.547732675E+01  1.371202717E+02  9.118800000E+01  0.00000E+00  9.000E+00
     -13     1     3     3     0     0 -1.371540990E+01  2.021284811E+01 -8.143405170E+01  8.501874879E+01  1.057000000E-01  0.00000E+00  9.000E+00
      13     1     3     3     0     0  4.425568883E+01  2.719638680E+01 -4.043275053E+00  5.210152296E+01  1.057000000E-01  0.00000E+00  9.000E+00
       2     1     1     2   501     0 -3.023870650E+01 -5.144106891E+01 -3.516523719E+01  6.926229672E+01  3.300000000E-01  0.00000E+00  9.000E+00
      -2     1     1     2     0   512  2.801686486E+00 -2.755012505E-01 -9.459597680E+01  9.463843339E+01  3.300000000E-01  0.00000E+00  9.000E+00
      21     1     1     2   512   502 -3.103258908E+00  4.307335250E+00  7.280250115E+00  9.010293810E+00  5.057621821E-07  0.00000E+00  9.000E+00
</event>
<event>
      8  10001  1.79503E-02  2.30779E+02 -1.00000E+00  1.11282E-01
       2    -1     0     0   501     0  0.000000000E+00  0.000000000E+00  8.961005563E+02  8.961005563E+02  0.000000000E+00  0.00000E+00  9.000E+00
       3    -1     0     0   502     0  0.000000000E+00  0.000000000E+00 -8.034816026E+01  8.034816026E+01  0.000000000E+00  0.00000E+00  9.000E+00
      23     2     1     2     0     0 -1.847131370E+01 -1.487168928E+02  2.159893602E+02  2.782526886E+02  9.118800000E+01  0.00000E+00  9.000E+00
     -13     1     3     3     0     0  2.182867382E+01 -1.437866069E+01  7.482662012E+01  7.926077929E+01  1.057000000E-01  0.00000E+00  9.000E+00
      13     1     3     3     0     0 -4.029998752E+01 -1.343382321E+02  1.411627401E+02  1.989919093E+02  1.057000000E-01  0.00000E+00  9.000E+00
       1     1     1     2   511     0  2.933473413E+01 -1.426062350E+01  1.534843537E+02  1.569122294E+02  3.300000000E-01  0.00000E+00  9.000E+00
       4     1     1     2   502     0  1.152318214E+01  1.548894899E+02  4.774406023E+02  5.020710274E+02  1.500000000E+00  0.00000E+00  9.000E+00
      21     1     1     2   501   511 -2.238660257E+01  8.088026375E+00 -3.116192026E+01  3.921277113E+01  2.780414531E-06  0.00000E+00  9.000E+00
</event>
<event>
      8  10001  1.05834E-02  1.97029E+02 -1.00000E+00  1.13823E-01
       2    -1     0     0   501     0  0.000000000E+00  0.000000000E+00  3.337748049E+02  3.337748049E+02  0.000000000E+00  0.00000E+00  9.000E+00
       1    -1     0     0   502     0  0.000000000E+00  0.000000000E+00 -7.670636328E+02  7.670636328E+02  0.000000000E+00  0.00000E+00  9.000E+00
      23     2     1     2     0     0 -6.942275468E+01 -4.448308839E+00  2.085499087E+02  2.380076093E+02  9.118800000E+01  0.00000E+00  9.000E+00
     -13     1     3     3     0     0  1.614308505E+01 -1.536202903E+01  8.113830601E+01  8.414289635E+01  1.057000000E-01  0.00000E+00  9.000E+00
      13     1     3     3     0     0 -8.556583973E+01  1.091372019E+01  1.274116027E+02  1.538647129E+02  1.057000000E-01  0.00000E+00  9.000E+00
       1     1     1     2   501     0 -1.068227973E+02 -1.181262521E+02 -4.236708742E+02  4.526168800E+02  3.300000000E-01  0.00000E+00  9.000E+00
       2     1     1     2   511     0  1.231237056E+02  1.020037226E+02 -2.823004671E+02  3.244346913E+02  3.300000000E-01  0.00000E+00  9.000E+00
      21     1     1     2   502   511  5.312184636E+01  2.057083838E+01  6.413260477E+01  8.577925708E+01  2.697398305E-06  0.00000E+00  9.000E+00
</event>
<event>
      8  10001  1.45640E-02  1.69054E+02 -1.00000E+00  1.16399E-01
       2    -1     0     0   501     0  0.000000000E+00  0.000000000E+00  1.968227400E+02  1.968227400E+02  0.000000000E+00  0.00000E+00  9.000E+00
      -3    -1     0     0     0   502  0.000000000E+00  0.000000000E+00 -1.819710747E+02  1.819710747E+02  0.000000000E+00  0.00000E+00  9.000E+00
      23     2     1     2     0     0  3.004163873E+01 -2.920470780E+01 -1.429205311E+02  1.746337441E+02  9.118800000E+01  0.00000E+00  9.000E+00
     -13     1     3     3     0     0  5.961038582E+01 -1.358724653E+01 -1.181056375E+02  1.329923462E+02  1.057000000E-01  0.00000E+00  9.000E+00
      13     1     3     3     0     0 -2.956874709E+01 -1.561746127E+01 -2.481489366E+01  4.164139792E+01  1.057000000E-01  0.00000E+00  9.000E+00
       2     1     1     2   501     0 -4.954117258E+01  1.846174983E+01  6.551346322E+01  8.418602467E+01  3.300000000E-01  0.00000E+00  9.000E+00
      -3     1     1     2     0   512  1.481204846E+01 -6.822702158E+00 -7.936031905E+00  1.814322592E+01  5.000000000E-01  0.00000E+00  9.000E+00
      21     1     1     2   512   502  4.687485383E+00  1.756566013E+01  1.001947651E+02  1.018308199E+02  1.348699152E-06  0.00000E+00  9.000E+00
</event>
<event>
      8  10001  1.06783E-02  4.62919E+01 -1.00000E+00  1.44138E-01
       1    -1     0     0   501     0  0.000000000E+00  0.000000000E+00  1.512276369E+03  1.512276369E+03  0.000000000E+00  0.00000E+00  9.000E+00
       4    -1     0     0   502     0  0.000000000E+00  0.000000000E+00 -6.213837517E+02  6.213837517E+02  0.000000000E+00  0.00000E+00  9.000E+00
      23     2     1     2     0     0  4.417271662E+01 -5.168064456E+02  1.342425904E+03  1.442034220E+03  9.118800000E+01  0.00000E+00  9.000E+00
     -13     1     3     3     0     0 -5.568563693E-01 -6.780446639E+01  1.058633197E+02  1.257171802E+02  1.057000000E-01  0.00000E+00  9.000E+00
      13     1     3     3     0     0  4.472957299E+01 -4.490019792E+02  1.236562584E+03  1.316317039E+03  1.057000000E-01  0.00000E+00  9.000E+00
       2     1     1     2   511     0  9.349516895E+00  3.800442862E+01 -1.873272593E+01  4.339094355E+01  3.300000000E-01  0.00000E+00  9.000E+00
       3     1     1     2   502     0 -3.641536337E+01  4.024377998E+02 -3.701232505E+02  5.479723825E+02  5.000000000E-01  0.00000E+00  9.000E+00
      21     1     1     2   501   511 -1.710687014E+01  7.636421713E+01 -6.267731058E+01  1.002625749E+02  4.211311753E-06  0.00000E+00  9.000E+00
</event>
<event>
      8  10001  1.05367E-02  4.90154E+02 -1.00000E+00  1.00608E-01
       1    -1     0     0   501     0  0.000000000E+00  0.000000000E+00  1.753181123E+03  1.753181123E+03  0.000000000E+00  0.00000E+00  9.000E+00
       2    -1     0     0   502     0  0.000000000E+00  0.000000000E+00 -1.389117576E+02  1.389117576E+02  0.000000000E+00  0.00000E+00  9.000E+00
      23     2     1     2     0     0 -5.053183922E+01  1.265966442E+02  3.268014181E+02  3.656427154E+02  9.118800000E+01  0.00000E+00  9.000E+00
     -13     1     3     3     0     0 -3.516486349E+01  1.217820949E+02  1.931777977E+02  2.310521997E+02  1.057000000E-01  0.00000E+00  9.000E+00
      13     1     3     3     0     0 -1.536697573E+01  4.814549326E+00  1.336236204E+02  1.345905157E+02  1.057000000E-01  0.00000E+00  9.000E+00
       2     1     1     2   501     0  6.374756476E-01 -2.830208756E+02  2.848104131E+02  4.015199905E+02  3.300000000E-01  0.00000E+00  9.000E+00
       1     1     1     2   511     0  6.091782161E+01  1.699356620E+02  7.238829770E+01  1.944975187E+02  3.300000000E-01  0.00000E+00  9.000E+00
      21     1     1     2   502   511 -1.102345803E+01 -1.351143066E+01  9.302692359E+02  9.304326556E+02  1.868812365E-05  0.00000E+00  9.000E+00
</event>
<event>
      8  10001  2.29119E-01  7.40557E+00 -1.00000E+00  2.19531E-01
       1    -1     0     0   501     0  0.000000000E+00  0.000000000E+00  2.601992275E+02  2.601992275E+02  0.000000000E+00  0.00000E+00  9.000E+00
      -4    -1     0     0     0   502  0.000000000E+00  0.000000000E+00 -6.991397974E+01  6.991397974E+01  0.000000000E+00  0.00000E+00  9.000E+00
      23     2     1     2     0     0 -4.137354261E+00  4.053316197E+00 -3.237811327E+01  9.693884998E+01  9.118800000E+01  0.00000E+00  9.000E+00
     -13     1     3     3     0     0  5.228885666E+00 -4.216225822E+01 -2.475525463E+01  4.917144566E+01  1.057000000E-01  0.00000E+00  9.000E+00
      13     1     3     3     0     0 -9.366239927E+00  4.621557442E+01 -7.622858634E+00  4.776740432E+01  1.057000000E-01  0.00000E+00  9.000E+00
       1     1     1     2   501     0  1.068134457E+01 -3.250720062E+00  2.235050699E+02  2.237840108E+02  3.300000000E-01  0.00000E+00  9.000E+00
      -4     1     1     2     0   512 -4.788976479E+00  3.351445906E-01  2.368142680E+00  5.559201145E+00  1.500000000E+00  0.00000E+00  9.000E+00
      21     1     1     2   512   502 -1.755013832E+00 -1.137740726E+00 -3.209851572E+00  3.831145341E+00  6.222907608E-07  0.00000E+00  9.000E+00
</event>
<event>
      8  10001  1.97050E-02  5.09846E+01 -1.00000E+00  1.41610E-01
       2    -1     0     0   501     0  0.000000000E+00  0.000000000E+00  3.018418695E+02  3.018418695E+02  0.000000000E+00  0.00000E+00  9.000E+00
      -2    -1     0     0     0   502  0.000000000E+00  0.000000000E+00 -2.549457679E+02  2.549457679E+02  0.000000000E+00  0.00000E+00  9.000E+00
      23     2     1     2     0     0  2.899448383E+01 -1.977409293E+01 -2.258559414E+02  2.460850513E+02  9.118800000E+01  0.00000E+00  9.000E+00
     -13     1     3     3     0     0 -1.185206002E+00  7.391881645E+00  6.677933227E+00  1.003247687E+01  1.057000000E-01  0.00000E+00  9.000E+00
      13     1     3     3     0     0  3.017968983E+01 -2.716597457E+01 -2.325338746E+02  2.360525744E+02  1.057000000E-01  0.00000E+00  9.000E+00
       2     1     1     2   511     0  4.019103136E+00 -2.313653266E+00  2.419369403E+02  2.419816071E+02  3.300000000E-01  0.00000E+00  9.000E+00
      -2     1     1     2     0   502  4.189214659E+00  1.873141172E+01  2.402884469E+01  3.075564308E+01  3.300000000E-01  0.00000E+00  9.000E+00
      21     1     1     2   501   511 -3.720280162E+01  3.356334475E+00  6.786257975E+00  3.796533586E+01  7.152557373E-07  0.00000E+00  9.000E+00
</event>
<event>
      8  10001  1.55237E-02  3.32888E+01 -1.00000E+00  1.53520E-01
       2    -1     0     0   501     0  0.000000000E+00  0.000000000E+00  1.377208582E+02  1.377208582E+02  0.000000000E+00  0.00000E+00  9.000E+00
       4    -1     0     0   502     0  0.000000000E+00  0.000000000E+00 -5.885457528E+01  5.885457528E+01  0.000000000E+00  0.00000E+00  9.000E+00
      23     2     1     2     0     0 -4.830649385E+00  9.927965150E+00  9.302741640E+00  9.232384314E+01  9.118800000E+01  0.00000E+00  9.000E+00
     -13     1     3     3     0     0  4.118180843E+01 -4.426161104E+00  1.441054906E+01  4.385438797E+01  1.057000000E-01  0.00000E+00  9.000E+00
      13     1     3     3     0     0 -4.601245782E+01  1.435412625E+01 -5.107807420E+00  4.846945516E+01  1.057000000E-01  0.00000E+00  9.000E+00
       2     1     1     2   511     0  2.735738067E+00 -2.198042467E+01  2.408122476E+01  3.272059928E+01  3.300000000E-01  0.00000E+00  9.000E+00
       4     1     1     2   502     0  1.775175219E+01  1.265394920E+01  5.054395413E+01  5.506531064E+01  1.500000000E+00  0.00000E+00  9.000E+00
      21     1     1     2   501   511 -1.565684087E+01 -6.014896876E-01 -5.061637632E+00  1.646568041E+01  8.194283894E-07  0.00000E+00  9.000E+00
</event>
<event>
      8  10001  1.06475E-02  3.47009E+02 -1.00000E+00  1.05231E-01
       1    -1     0     0   501     0  0.000000000E+00  0.000000000E+00  1.149771425E+02  1.149771425E+02  0.000000000E+00  0.00000E+00  9.000E+00
       2    -1     0     0   502     0  0.000000000E+00  0.000000000E+00 -1.788964332E+03  1.788964332E+03  0.000000000E+00  0.00000E+00  9.000E+00
      23     2     1     2     0     0  1.386554405E+02 -3.167168379E+02 -1.041284145E+03  1.100964490E+03  9.118800000E+01  0.00000E+00  9.000E+00
     -13     1     3     3     0     0  1.333125781E+02 -1.993707583E+02 -6.790302550E+02  7.201409870E+02  1.057000000E-01  0.00000E+00  9.000E+00
      13     1     3     3     0     0  5.342862411E+00 -1.173460796E+02 -3.622538895E+02  3.808235027E+02  1.057000000E-01  0.00000E+00  9.000E+00
       2     1     1     2   501     0 -7.058823724E+01  1.497614127E+02 -1.454937040E+02  2.204080461E+02  3.300000000E-01  0.00000E+00  9.000E+00
       1     1     1     2   511     0 -2.563890063E+01  4.458040575E+01 -4.426041242E+02  4.455819627E+02  3.300000000E-01  0.00000E+00  9.000E+00
      21     1     1     2   502   511 -4.242830264E+01  1.223750194E+02 -4.460521660E+01  1.369869760E+02  3.536319011E-06  0.00000E+00  9.000E+00
</event>
<event>
      8  10001  1.05844E-02  5.99199E+02 -1.00000E+00  9.81041E-02
       3    -1     0     0   501     0  0.000000000E+00  0.000000000E+00  3.514250960E+02  3.514250960E+02  0.000000000E+00  0.00000E+00  9.000E+00
       2    -1     0     0   502     0  0.000000000E+00  0.000000000E+00 -1.064799476E+03  1.064799476E+03  0.000000000E+00  0.00000E+00  9.000E+00
      23     2     1     2     0     0  3.887840753E+02 -7.756022777E+01 -6.467807040E+02  7.640740648E+02  9.118800000E+01  0.00000E+00  9.000E+00
     -13     1     3     3     0     0  4.617307463E+01 -1.337765430E+01 -1.476420314E+02  1.552710374E+02  1.057000000E-01  0.00000E+00  9.000E+00
      13     1     3     3     0     0  3.426110007E+02 -6.418257347E+01 -4.991386726E+02  6.088030274E+02  1.057000000E-01  0.00000E+00  9.000E+00
       3     1     1     2   501     0 -1.876035781E+02  1.463151913E+02 -1.899785174E+02  3.044590691E+02  5.000000000E-01  0.00000E+00  9.000E+00
       2     1     1     2   512     0 -4.588673960E+01 -4.183044119E+01 -7.302988980E+01  9.585850189E+01  3.300000000E-01  0.00000E+00  9.000E+00
      21     1     1     2   502   512 -1.552937576E+02 -2.692452230E+01  1.964147312E+02  2.518329361E+02  3.814697266E-06  0.00000E+00  9.000E+00
</event>
<event>
      8  10001  1.20740E-02  8.85912E+01 -1.00000E+00  1.28727E-01
      -1    -1     0     0     0   501  0.000000000E+00  0.000000000E+00  1.929162950E+02  1.929162950E+02  0.000000000E+00  0.00000E+00  9.000E+00
       3    -1     0     0   502     0  0.000000000E+00  0.000000000E+00 -6.261206051E+02  6.261206051E+02  0.000000000E+00  0.00000E+00  9.000E+00
      23     2     1     2     0     0 -1.019596349E+02 -7.699838419E+00  1.429199300E+02  1.979808385E+02  9.118800000E+01  0.00000E+00  9.000E+00
     -13     1     3     3     0     0 -2.626554043E+01 -4.092843754E+01  8.183343294E+01  9.519315907E+01  1.057000000E-01  0.00000E+00  9.000E+00
      13     1     3     3     0     0 -7.569409451E+01  3.322859912E+01  6.108649706E+01  1.027876794E+02  1.057000000E-01  0.00000E+00  9.000E+00
      -2     1     1     2     0   511 -3.005574723E+01  1.018848804E+00 -2.079560396E-01  3.007554056E+01  3.300000000E-01  0.00000E+00  9.000E+00
       4     1     1     2   502     0  1.168627987E+02  5.515137727E+00 -4.940364715E+02  5.077022903E+02  1.500000000E+00  0.00000E+00  9.000E+00
      21     1     1     2   511   501  1.515258348E+01  1.165851888E+00 -8.187981259E+01  8.327823069E+01  3.568322551E-06  0.00000E+00  9.000E+00
</event>
<event>
      8  10001  1.07741E-02  2.13573E+02 -1.00000E+00  1.12512E-01
       1    -1     0     0   501     0  0.000000000E+00  0.000000000E+00  9.868399339E+01  9.868399339E+01  0.000000000E+00  0.00000E+00  9.000E+00
      -1    -1     0     0     0   502  0.000000000E+00  0.000000000E+00 -9.446148797E+02  9.446148797E+02  0.000000000E+00  0.00000E+00  9.000E+00
      23     2     1     2     0     0  2.208196108E+02 -2.321353783E+01 -3.699042580E+02  4.409587059E+02  9.118800000E+01  0.00000E+00  9.000E+00
     -13     1     3     3     0     0  1.700585615E+00 -9.109889462E+00 -6.253564286E+01  6.321866716E+01  1.057000000E-01  0.00000E+00  9.000E+00
      13     1     3     3     0     0  2.191190252E+02 -1.410364837E+01 -3.073686152E+02  3.777400388E+02  1.057000000E-01  0.00000E+00  9.000E+00
       2     1     1     2   501     0 -1.034027802E+02 -4.111734918E+01 -1.200175538E+02  1.636676311E+02  3.300000000E-01  0.00000E+00  9.000E+00
      -2     1     1     2     0   511 -8.312468803E+01 -1.496816866E+00 -3.548290598E+02  3.644389178E+02  3.300000000E-01  0.00000E+00  9.000E+00
      21     1     1     2   511   502 -3.429214259E+01  6.582770387E+01 -1.180014662E+00  7.423361823E+01  5.197280653E-06  0.00000E+00  9.000E+00
</event>
<event>
      8  10001  1.49971E-02  4.27434E+02 -1.00000E+00  1.02390E-01
       1    -1     0     0   501     0  0.000000000E+00  0.000000000E+00  2.744958293E+02  2.744958293E+02  0.000000000E+00  0.00000E+00  9.000E+00
      -1    -1     0     0     0   502  0.000000000E+00  0.000000000E+00 -3.533851749E+02  3.533851749E+02  0.000000000E+00  0.00000E+00  9.000E+00
      23     2     1     2     0     0  1.131334314E+02  5.968753865E+01 -1.675643447E+02  2.296842104E+02  9.118800000E+01  0.00000E+00  9.000E+00
     -13     1     3     3     0     0  9.727963822E+01  3.704720289E+01 -1.726283662E+02  2.015846900E+02  1.057000000E-01  0.00000E+00  9.000E+00
      13     1     3     3     0     0  1.585379315E+01  2.264033576E+01  5.064021527E+00  2.809952040E+01  1.057000000E-01  0.00000E+00  9.000E+00
       2     1     1     2   501     0 -1.046069722E+02 -7.156948416E+01 -2.647589384E+01  1.294831709E+02  3.300000000E-01  0.00000E+00  9.000E+00
      -2     1     1     2     0   512  1.572576733E+01 -3.069239113E+01 -6.954613921E+01  7.762793962E+01  3.300000000E-01  0.00000E+00  9.000E+00
      21     1     1     2   512   502 -2.425222651E+01  4.257433665E+01  1.846970322E+02  1.910856832E+02  9.725607898E-06  0.00000E+00  9.000E+00
</event>
<event>
      8  10001  1.18455E-02  2.06265E+02 -1.00000E+00  1.13074E-01
       2    -1     0     0   501     0  0.000000000E+00  0.000000000E+00  6.254139894E+02  6.254139894E+02  0.000000000E+00  0.00000E+00  9.000E+00
       1    -1     0     0   502     0  0.000000000E+00  0.000000000E+00 -4.973780154E+01  4.973780154E+01  0.000000000E+00  0.00000E+00  9.000E+00
      23     2     1     2     0     0 -1.017016682E+02 -1.911101565E+00  1.219185206E+02  1.831017712E+02  9.118800000E+01  0.00000E+00  9.000E+00
     -13     1     3     3     0     0 -7.928780584E+01 -4.242383105E+01  7.385801519E+01  1.163673286E+02  1.057000000E-01  0.00000E+00  9.000E+00
      13     1     3     3     0     0 -2.241386234E+01  4.051272948E+01  4.806050542E+01  6.673444259E+01  1.057000000E-01  0.00000E+00  9.000E+00
       1     1     1     2   501     0  5.496582583E+01  3.773770544E+00  8.713343374E+01  1.030913553E+02  3.300000000E-01  0.00000E+00  9.000E+00
       2     1     1     2   511     0  4.069331277E+00 -2.034749920E+01  1.415015051E+00  2.080123430E+01  3.300000000E-01  0.00000E+00  9.000E+00
      21     1     1     2   502   511  4.266651107E+01  1.848483022E+01  3.652092184E+02  3.681574301E+02  5.394796609E-06  0.00000E+00  9.000E+00
</event>
<event>
      8  10001  1.19807E-01  8.30348E+00 -1.00000E+00  2.12478E-01
       2    -1     0     0   501     0  0.000000000E+00  0.000000000E+00  2.071999642E+03  2.071999642E+03  0.000000000E+00  0.00000E+00  9.000E+00
      -1    -1     0     0     0   502  0.000000000E+00  0.000000000E+00 -3.054346625E+00  3.054346625E+00  0.000000000E+00  0.00000E+00  9.000E+00
      23     2     1     2     0     0 -5.963795746E-02  5.212111202E+01  1.319500124E+03  1.323673842E+03  9.118800000E+01  0.00000E+00  9.000E+00
     -13     1     3     3     0     0  4.543842513E+00  1.899917840E+01  4.923990548E+01  5.297352876E+01  1.057000000E-01  0.00000E+00  9.000E+00
      13     1     3     3     0     0 -4.603480470E+00  3.312193362E+01  1.270260218E+03  1.270700314E+03  1.057000000E-01  0.00000E+00  9.000E+00
       2     1     1     2   501     0 -3.127592016E+00 -4.697268152E+01  6.493628997E+02  6.510672001E+02  3.300000000E-01  0.00000E+00  9.000E+00
      -1     1     1     2     0   512  6.580816797E-01  2.881461444E-01  1.373883562E+01  1.376156255E+01  3.300000000E-01  0.00000E+00  9.000E+00
      21     1     1     2   512   502  2.529148294E+00 -5.436576640E+00  8.634343624E+01  8.655138323E+01  4.672030912E-06  0.00000E+00  9.000E+00
</event>
<event>
      8  10001  1.19603E-02  1.93478E+02 -1.00000E+00  1.14122E-01
       2    -1     0     0   501     0  0.000000000E+00  0.000000000E+00  1.173447659E+03  1.173447659E+03  0.000000000E+00  0.00000E+00  9.000E+00
       2    -1     0     0   502     0  0.000000000E+00  0.000000000E+00 -3.111687499E+01  3.111687499E+01  0.000000000E+00  0.00000E+00  9.000E+00
      23     2     1     2     0     0  5.138840675E+01  8.809983376E+01  5.780964426E+02  5.940648932E+02  9.118800000E+01  0.00000E+00  9.000E+00
     -13     1     3     3     0     0  4.757554790E+01  5.571600213E+00  1.329286710E+02  1.412958536E+02  1.057000000E-01  0.00000E+00  9.000E+00
      13     1     3     3     0     0  3.812858850E+00  8.252823354E+01  4.451677716E+02  4.527690397E+02  1.057000000E-01  0.00000E+00  9.000E+00
       2     1     1     2   501     0  2.161982197E+01 -3.219231142E+01  1.918958807E+01  4.326789580E+01  3.300000000E-01  0.00000E+00  9.000E+00
       2     1     1     2   511     0 -5.293496135E+00 -3.276425663E+00 -6.530695102E+00  9.028562730E+00  3.300000000E-01  0.00000E+00  9.000E+00
      21     1     1     2   502   511 -6.771473258E+01 -5.263109667E+01  5.515754483E+02  5.582031821E+02  7.629394531E-06  0.00000E+00  9.000E+00
</event>
<event>
      8  10001  1.01566E-01  2.63650E+01 -1.00000E+00  1.60953E-01
       2    -1     0     0   501     0  0.000000000E+00  0.000000000E+00  4.362540612E+02  4.362540612E+02  0.000000000E+00  0.00000E+00  9.000E+00
       2    -1     0     0   502     0  0.000000000E+00  0.000000000E+00 -8.164969979E+01  8.164969979E+01  0.000000000E+00  0.00000E+00  9.000E+00
      23     2     1     2     0     0  1.705290147E+00  4.213858341E+00 -4.895047395E+01  1.035956797E+02  9.118800000E+01  0.00000E+00  9.000E+00
     -13     1     3     3     0     0  2.005675632E+01 -3.968851947E+00 -7.092866300E+01  7.381674381E+01  1.057000000E-01  0.00000E+00  9.000E+00
      13     1     3     3     0     0 -1.835146618E+01  8.182710288E+00  2.197818905E+01  2.977893593E+01  1.057000000E-01  0.00000E+00  9.000E+00
       2     1     1     2   501     0  2.802199574E+00 -2.725356453E+00  3.875696788E+02  3.875895312E+02  3.300000000E-01  0.00000E+00  9.000E+00
       2     1     1     2   512     0  3.930289710E+00  6.665759401E+00  1.208378730E+01  1.435292100E+01  3.300000000E-01  0.00000E+00  9.000E+00
      21     1     1     2   502   512 -8.437779431E+00 -8.154261289E+00  3.901369240E+00  1.236562901E+01  7.907449699E-07  0.00000E+00  9.000E+00
</event>
<event>
      8  10001  1.07749E-02  5.02175E+01 -1.00000E+00  1.42001E-01
      -1    -1     0     0     0   501  0.000000000E+00  0.000000000E+00  1.122825772E+02  1.122825772E+02  0.000000000E+00  0.00000E+00  9.000E+00
      -2    -1     0     0     0   502  0.000000000E+00  0.000000000E+00 -9.163907272E+02  9.163907272E+02  0.000000000E+00  0.00000E+00  9.000E+00
      23     2     1     2     0     0 -3.017803603E+02 -4.783522763E+01 -2.974438522E+02  4.360592751E+02  9.118800000E+01  0.00000E+00  9.000E+00
     -13     1     3     3     0     0 -2.354235276E+02 -9.542236929E+00 -1.829876181E+02  2.983282944E+02  1.057000000E-01  0.00000E+00  9.000E+00
      13     1     3     3     0     0 -6.635683271E+01 -3.829299070E+01 -1.144562340E+02  1.377309808E+02  1.057000000E-01  0.00000E+00  9.000E+00
      -2     1     1     2     0   511  7.438788835E+00 -2.878044513E+00 -1.569508888E+01  1.760861818E+01  3.300000000E-01  0.00000E+00  9.000E+00
      -1     1     1     2     0   502  2.047392572E+02  3.728846835E+01 -3.582675472E+02  4.143239525E+02  3.300000000E-01  0.00000E+00  9.000E+00
      21     1     1     2   511   501  8.960231432E+01  1.342480379E+01 -1.327016617E+02  1.606814585E+02  4.672030912E-06  0.00000E+00  9.000E+00
</event>
<event>
      8  10001  1.08760E-02  2.19773E+02 -1.00000E+00  1.12055E-01
       2    -1     0     0   501     0  0.000000000E+00  0.000000000E+00  6.308633571E+02  6.308633571E+02  0.000000000E+00  0.00000E+00  9.000E+00
       3    -1     0     0   502     0  0.000000000E+00  0.000000000E+00 -1.112289310E+02  1.112289310E+02  0.000000000E+00  0.00000E+00  9.000E+00
      23     2     1     2     0     0 -9.272069401E+00  1.776518712E+02  1.435461564E+02  2.461034518E+02  9.118800000E+01  0.00000E+00  9.000E+00
     -13     1     3     3     0     0  2.789688614E+01  3.757210334E+01  6.833529943E+01  8.282284423E+01  1.057000000E-01  0.00000E+00  9.000E+00
      13     1     3     3     0     0 -3.716895554E+01  1.400797679E+02  7.521085700E+01  1.632806076E+02  1.057000000E-01  0.00000E+00  9.000E+00
       1     1     1     2   501     0  6.406636312E+01 -5.836566099E+01  6.014900093E+01  1.054943623E+02  3.300000000E-01  0.00000E+00  9.000E+00
       4     1     1     2   511     0 -1.762994400E+01 -7.490838233E+01  8.253140131E+00  7.741088419E+01  1.500000000E+00  0.00000E+00  9.000E+00
      21     1     1     2   502   511 -3.716434972E+01 -4.437782792E+01  3.076861286E+02  3.130835898E+02  3.814697266E-06  0.00000E+00  9.000E+00
</event>
<event>
      8  10001  2.71329E-02  5.67748E+01 -1.00000E+00  1.38898E-01
      -3    -1     0     0     0   501  0.000000000E+00  0.000000000E+00  5.137782378E+01  5.137782378E+01  0.000000000E+00  0.00000E+00  9.000E+00
      -4    -1     0     0     0   502  0.000000000E+00  0.000000000E+00 -1.917915931E+02  1.917915931E+02  0.000000000E+00  0.00000E+00  9.000E+00
      23     2     1     2     0     0 -2.168511148E+01  2.776713702E+01 -1.113502653E+02  1.481735162E+02  9.118800000E+01  0.00000E+00  9.000E+00
     -13     1     3     3     0     0 -4.746306883E+01 -3.518336522E+00 -2.732255106E+01  5.487854375E+01  1.057000000E-01  0.00000E+00  9.000E+00
      13     1     3     3     0     0  2.577795735E+01  3.128547354E+01 -8.402771427E+01  9.329497242E+01  1.057000000E-01  0.00000E+00  9.000E+00
      -3     1     1     2     0   512  8.717055598E-01 -1.785737236E+00  2.967608371E+00  3.606303856E+00  5.000000000E-01  0.00000E+00  9.000E+00
      -4     1     1     2     0   502  1.980150004E+01 -1.613422354E+01  2.364585890E+01  3.483947784E+01  1.500000000E+00  0.00000E+00  9.000E+00
      21     1     1     2   512   501  1.011905880E+00 -9.847176245E+00 -5.567697127E+01  5.655011904E+01  1.507891493E-06  0.00000E+00  9.000E+00
</event>
<event>
      8  10001  1.05449E-02  3.60896E+02 -1.00000E+00  1.04684E-01
       2    -1     0     0   501     0  0.000000000E+00  0.000000000E+00  1.947110703E+02  1.947110703E+02  0.000000000E+00  0.00000E+00  9.000E+00
      -2    -1     0     0     0   502  0.000000000E+00  0.000000000E+00 -2.093470708E+03  2.093470708E+03  0.000000000E+00  0.00000E+00  9.000E+00
      23     2     1     2     0     0  1.324518394E+02 -6.061279890E+00 -1.226428992E+03  1.236941209E+03  9.118800000E+01  0.00000E+00  9.000E+00
     -13     1     3     3     0     0  2.667706115E+01  1.700279556E+01 -9.059387243E+01  9.595843654E+01  1.057000000E-01  0.00000E+00  9.000E+00
      13     1     3     3     0     0  1.057747783E+02 -2.306407545E+01 -1.135835120E+03  1.140982772E+03  1.057000000E-01  0.00000E+00  9.000E+00
       1     1     1     2   501     0 -2.149270410E+02 -4.561993106E+01  3.944442987E+01  2.232280964E+02  3.300000000E-01  0.00000E+00  9.000E+00
      -1     1     1     2     0   511  4.609108115E+01  7.462982738E+01 -7.590466524E+02  7.640981143E+02  3.300000000E-01  0.00000E+00  9.000E+00
      21     1     1     2   511   502  3.638412044E+01 -2.294861643E+01  4.727157748E+01  6.391435874E+01  6.253660702E-06  0.00000E+00  9.000E+00
</event>
<event>
      8  10001  1.05665E-02  2.45066E+02 -1.00000E+00  1.10346E-01
       1    -1     0     0   501     0  0.000000000E+00  0.000000000E+00  9.633901508E+02  9.633901508E+02  0.000000000E+00  0.00000E+00  9.000E+00
       2    -1     0     0   502     0  0.000000000E+00  0.000000000E+00 -1.587299138E+02  1.587299138E+02  0.000000000E+00  0.00000E+00  9.000E+00
      23     2     1     2     0     0  3.848561488E+01  6.085775019E+01  2.004264393E+02  2.316696295E+02  9.118800000E+01  0.00000E+00  9.000E+00
     -13     1     3     3     0     0 -1.472437122E+01  5.947132516E+01  8.738213140E+01  1.067206338E+02  1.057000000E-01  0.00000E+00  9.000E+00
      13     1     3     3     0     0  5.320998610E+01  1.386425033E+00  1.130443079E+02  1.249489957E+02  1.057000000E-01  0.00000E+00  9.000E+00
       2     1     1     2   501     0  8.851586315E+01 -2.041762354E+02  3.888628083E+01  2.259098157E+02  3.300000000E-01  0.00000E+00  9.000E+00
       1     1     1     2   512     0 -1.727037408E+02  1.320473537E+02  1.975721034E+02  2.937650943E+02  3.300000000E-01  0.00000E+00  9.000E+00
      21     1     1     2   502   512  4.570226272E+01  1.127113150E+01  3.677754134E+02  3.707755250E+02  5.394796609E-06  0.00000E+00  9.000E+00
</event>
<event>
      8  10001  1.11996E-02  1.85528E+02 -1.00000E+00  1.14821E-01
       1    -1     0     0   501     0  0.000000000E+00  0.000000000E+00  2.712723075E+02  2.712723075E+02  0.000000000E+00  0.00000E+00  9.000E+00
      -1    -1     0     0     0   502  0.000000000E+00  0.000000000E+00 -1.405772129E+02  1.405772129E+02  0.000000000E+00  0.00000E+00  9.000E+00
      23     2     1     2     0     0  9.116223128E+01 -7.469948670E+01 -2.305150781E+01  1.507885575E+02  9.118800000E+01  0.00000E+00  9.000E+00
     -13     1     3     3     0     0  8.925067708E+01 -6.057609058E+01 -5.107610705E+01  1.193479199E+02  1.057000000E-01  0.00000E+00  9.000E+00
      13     1     3     3     0     0  1.911554203E+00 -1.412339611E+01  2.802459924E+01  3.144063759E+01  1.057000000E-01  0.00000E+00  9.000E+00
       2     1     1     2   501     0  1.703548763E+01  6.194235609E+01 -4.684655544E+00  6.441364929E+01  3.300000000E-01  0.00000E+00  9.000E+00
      -2     1     1     2     0   511 -9.228556865E-01 -6.734568660E+00  5.106733974E+00  8.508449302E+00  3.300000000E-01  0.00000E+00  9.000E+00
      21     1     1     2   511   502 -1.072748632E+02  1.949169926E+01  1.533245239E+02  1.881388643E+02  1.907348633E-06  0.00000E+00  9.000E+00
</event>
<event>
      8  10001  1.43764E-02  1.02055E+02 -1.00000E+00  1.25804E-01
      -2    -1     0     0     0   501  0.000000000E+00  0.000000000E+00  3.093052106E+01  3.093052106E+01  0.000000000E+00  0.00000E+00  9.000E+00
       2    -1     0     0   502     0  0.000000000E+00  0.000000000E+00 -1.103695237E+03  1.103695237E+03  0.000000000E+00  0.00000E+00  9.000E+00
      23     2     1     2     0     0  4.023636893E+01  7.502230782E+01 -7.768773653E+02  7.868297173E+02  9.118800000E+01  0.00000E+00  9.000E+00
     -13     1     3     3     0     0 -2.808420496E+01  3.667497909E+01 -3.105462224E+02  3.139629661E+02  1.057000000E-01  0.00000E+00  9.000E+00
      13     1     3     3     0     0  6.832057389E+01  3.834732873E+01 -4.663311429E+02  4.728667512E+02  1.057000000E-01  0.00000E+00  9.000E+00
      -2     1     1     2     0   512 -6.608108873E+00 -2.627599257E+01 -5.834133371E+00  2.771715896E+01  3.300000000E-01  0.00000E+00  9.000E+00
       2     1     1     2   502     0  1.510197229E+01 -1.882243564E+01  3.119854861E-01  2.413627737E+01  3.300000000E-01  0.00000E+00  9.000E+00
      21     1     1     2   512   501 -4.873023234E+01 -2.992387961E+01 -2.903652026E+02  2.959426042E+02  5.394796609E-06  0.00000E+00  9.000E+00
</event>
<event>
      8  10001  1.33080E-02  3.31130E+02 -1.00000E+00  1.05892E-01
       2    -1     0     0   501     0  0.000000000E+00  0.000000000E+00  1.506838566E+02  1.506838566E+02  0.000000000E+00  0.00000E+00  9.000E+00
       2    -1     0     0   502     0  0.000000000E+00  0.000000000E+00 -4.554119402E+02  4.554119402E+02  0.000000000E+00  0.00000E+00  9.000E+00
      23     2     1     2     0     0 -4.442743572E+01 -7.842533882E+01 -1.122361872E+02  1.704011264E+02  9.118800000E+01  0.00000E+00  9.000E+00
     -13     1     3     3     0     0 -2.549077148E+01 -6.738326474E+01 -1.255512943E+02  1.447529705E+02  1.057000000E-01  0.00000E+00  9.000E+00
      13     1     3     3     0     0 -1.893666423E+01 -1.104207408E+01  1.331510708E+01  2.564815590E+01  1.057000000E-01  0.00000E+00  9.000E+00
       2     1     1     2   501     0  2.808611020E+01  2.961604088E+00  8.198799016E+01  8.671643509E+01  3.300000000E-01  0.00000E+00  9.000E+00
       2     1     1     2   511     0 -1.282590706E+01  3.227188384E+01  2.639617237E+01  4.362161384E+01  3.300000000E-01  0.00000E+00  9.000E+00
      21     1     1     2   502   511  2.916723258E+01  4.319185090E+01 -3.008760589E+02  3.053566215E+02  6.607249480E-06  0.00000E+00  9.000E+00
</event>
<event>
      8  10001  1.07195E-02  1.09217E+03 -1.00000E+00  9.13232E-02
       2    -1     0     0   501     0  0.000000000E+00  0.000000000E+00  3.022990061E+03  3.022990061E+03  0.000000000E+00  0.00000E+00  9.000E+00
       3    -1     0     0   502     0  0.000000000E+00  0.000000000E+00 -1.869569712E+02  1.869569712E+02  0.000000000E+00  0.00000E+00  9.000E+00
      23     2     1     2     0     0  4.384430117E+01 -1.745896783E+02 -4.181625886E+00  2.018331386E+02  9.118800000E+01  0.00000E+00  9.000E+00
     -13     1     3     3     0     0 -5.377673915E+00 -1.282706832E+02  2.023672579E+01  1.299685493E+02  1.057000000E-01  0.00000E+00  9.000E+00
      13     1     3     3     0     0  4.922197508E+01 -4.631899506E+01 -2.441835168E+01  7.186458937E+01  1.057000000E-01  0.00000E+00  9.000E+00
       2     1     1     2   501     0 -7.559263863E+01  2.448735708E+02  3.414344431E+02  4.269132237E+02  3.300000000E-01  0.00000E+00  9.000E+00
       3     1     1     2   512     0  1.198365432E+02 -1.172098419E+02  1.347752587E+02  2.150896661E+02  5.000000000E-01  0.00000E+00  9.000E+00
      21     1     1     2   502   512 -8.808820574E+01  4.692594932E+01  2.364005014E+03  2.366111004E+03  3.051757813E-05  0.00000E+00  9.000E+00
</event>
<event>
      8  10001  1.06982E-02  2.21211E+02 -1.00000E+00  1.11951E-01
       1    -1     0     0   501     0  0.000000000E+00  0.000000000E+00  1.185572475E+03  1.185572475E+03  0.000000000E+00  0.00000E+00  9.000E+00
      -3    -1     0     0     0   502  0.000000000E+00  0.000000000E+00 -6.604366972E+01  6.604366972E+01  0.000000000E+00  0.00000E+00  9.000E+00
      23     2     1     2     0     0  2.759791072E+01  8.393548266E+01  6.300396657E+01  1.417447039E+02  9.118800000E+01  0.00000E+00  9.000E+00
     -13     1     3     3     0     0  4.757434892E+01  6.873084666E+01  1.140718388E+01  8.436458365E+01  1.057000000E-01  0.00000E+00  9.000E+00
      13     1     3     3     0     0 -1.997643820E+01  1.520463600E+01  5.159678270E+01  5.738012021E+01  1.057000000E-01  0.00000E+00  9.000E+00
       2     1     1     2   501     0  1.031285096E+02 -1.061928729E+02  3.092242563E+02  3.428296448E+02  3.300000000E-01  0.00000E+00  9.000E+00
      -4     1     1     2     0   511 -3.392279240E+01  2.655584057E+01  6.564429152E+01  7.853274172E+01  1.500000000E+00  0.00000E+00  9.000E+00
      21     1     1     2   511   502 -9.680362796E+01 -4.298450371E+00  6.816562908E+02  6.885090543E+02  1.321449896E-05  0.00000E+00  9.000E+00
</event>
<event>
      8  10001  1.05187E-02  4.22951E+02 -1.00000E+00  1.02530E-01
       2    -1     0     0   501     0  0.000000000E+00  0.000000000E+00  3.422872970E+02  3.422872970E+02  0.000000000E+00  0.00000E+00  9.000E+00
       1    -1     0     0   502     0  0.000000000E+00  0.000000000E+00 -1.610611216E+03  1.610611216E+03  0.000000000E+00  0.00000E+00  9.000E+00
      23     2     1     2     0     0 -3.945184744E+01  5.840029068E+01  4.868953044E+01  1.251118057E+02  9.118800000E+01  0.00000E+00  9.000E+00
     -13     1     3     3     0     0  2.543904405E+01  1.983598305E+01 -4.775390870E+00  3.261022411E+01  1.057000000E-01  0.00000E+00  9.000E+00
      13     1     3     3     0     0 -6.489089149E+01  3.856430763E+01  5.346492131E+01  9.250158163E+01  1.057000000E-01  0.00000E+00  9.000E+00
       2     1     1     2   501     0  4.265416089E+02 -1.604966284E+02 -6.960105335E+02  8.319421155E+02  3.300000000E-01  0.00000E+00  9.000E+00
       1     1     1     2   512     0 -4.960782548E+02  2.203156514E+02 -6.338910868E+02  8.345361826E+02  3.300000000E-01  0.00000E+00  9.000E+00
      21     1     1     2   502   512  1.089884934E+02 -1.182193136E+02  1.288817124E+01  1.613084089E+02  5.421074391E-06  0.00000E+00  9.000E+00
</event>
<event>
      8  10001  1.06782E-02  2.53811E+02 -1.00000E+00  1.09808E-01
       2    -1     0     0   501     0  0.000000000E+00  0.000000000E+00  7.739524642E+01  7.739524642E+01  0.000000000E+00  0.00000E+00  9.000E+00
       1    -1     0     0   502     0  0.000000000E+00  0.000000000E+00 -8.186196736E+02  8.186196736E+02  0.000000000E+00  0.00000E+00  9.000E+00
      23     2     1     2     0     0 -1.401674635E+01  1.432839040E+01 -3.264966059E+02  3.395836524E+02  9.118800000E+01  0.00000E+00  9.000E+00
     -13     1     3     3     0     0  3.306928431E+01 -1.386765650E+01 -9.179689561E+01  9.855237530E+01  1.057000000E-01  0.00000E+00  9.000E+00
      13     1     3     3     0     0 -4.708603066E+01  2.819604690E+01 -2.346997103E+02  2.410312771E+02  1.057000000E-01  0.00000E+00  9.000E+00
       1     1     1     2   511     0  4.847174174E+01  1.002539358E+02 -3.578353277E+01  1.169655141E+02  3.300000000E-01  0.00000E+00  9.000E+00
       2     1     1     2   502     0  6.407415861E+00 -5.588394640E+01 -2.520280337E+00  5.630746981E+01  3.300000000E-01  0.00000E+00  9.000E+00
      21     1     1     2   501   511 -4.086241125E+01 -5.869837975E+01 -3.764240082E+02  3.831582837E+02  7.629394531E-06  0.00000E+00  9.000E+00
</event>
<event>
      8  10001  1.25327E-02  3.35848E+02 -1.00000E+00  1.05691E-01
       1    -1     0     0   501     0  0.000000000E+00  0.000000000E+00  1.378994596E+03  1.378994596E+03  0.000000000E+00  0.00000E+00  9.000E+00
       1    -1     0     0   502     0  0.000000000E+00  0.000000000E+00 -1.050803232E+02  1.050803232E+02  0.000000000E+00  0.00000E+00  9.000E+00
      23     2     1     2     0     0  1.165457817E+01 -1.705078724E+02  1.195957710E+02  2.276558006E+02  9.118800000E+01  0.00000E+00  9.000E+00
     -13     1     3     3     0     0  4.604669402E+01 -1.263458560E+02  6.460680561E+01  1.491898920E+02  1.057000000E-01  0.00000E+00  9.000E+00
      13     1     3     3     0     0 -3.439211585E+01 -4.416201643E+01  5.498896544E+01  7.846590865E+01  1.057000000E-01  0.00000E+00  9.000E+00
       1     1     1     2   511     0  1.365129552E+02  5.276911571E+01  3.985118541E+02  4.245375993E+02  3.300000000E-01  0.00000E+00  9.000E+00
       1     1     1     2   502     0 -1.505332026E+01  2.262299449E+01  6.162271785E+02  6.168261074E+02  3.300000000E-01  0.00000E+00  9.000E+00
      21     1     1     2   501   511 -1.331142131E+02  9.511576225E+01  1.395794691E+02  2.150554118E+02  2.697398305E-06  0.00000E+00  9.000E+00
</event>
<event>
      8  10001  1.19874E-02  7.51951E+01 -1.00000E+00  1.32292E-01
       3    -1     0     0   501     0  0.000000000E+00  0.000000000E+00  1.717621089E+02  1.717621089E+02  0.000000000E+00  0.00000E+00  9.000E+00
       4    -1     0     0   502     0  0.000000000E+00  0.000000000E+00 -1.380661007E+02  1.380661007E+02  0.000000000E+00  0.00000E+00  9.000E+00
      23     2     1     2     0     0 -5.078837819E+01  7.745984855E+01 -2.298622700E+01  1.319966116E+02  9.118800000E+01  0.00000E+00  9.000E+00
     -13     1     3     3     0     0  2.018188203E+01  1.589838061E+01 -2.788830782E+01  3.791880476E+01  1.057000000E-01  0.00000E+00  9.000E+00
      13     1     3     3     0     0 -7.097026022E+01  6.156146794E+01  4.902080826E+00  9.407780684E+01  1.057000000E-01  0.00000E+00  9.000E+00
       4     1     1     2   511     0  3.480732388E+01 -1.888940149E+01  1.829733775E+01  4.365090896E+01  1.500000000E+00  0.00000E+00  9.000E+00
       3     1     1     2   502     0  3.294730367E+01 -5.309875241E+01  7.248355020E+01  9.570327777E+01  5.000000000E-01  0.00000E+00  9.000E+00
      21     1     1     2   501   511 -1.696624935E+01 -5.471694651E+00 -3.409865277E+01  3.847741130E+01  1.430511475E-06  0.00000E+00  9.000E+00
</event>
<event>
      8  10001  1.11192E-02  7.99854E+01 -1.00000E+00  1.30925E-01
       1    -1     0     0   501     0  0.000000000E+00  0.000000000E+00  2.891261222E+02  2.891261222E+02  0.000000000E+00  0.00000E+00  9.000E+00
       2    -1     0     0   502     0  0.000000000E+00  0.000000000E+00 -1.779039863E+02  1.779039863E+02  0.000000000E+00  0.00000E+00  9.000E+00
      23     2     1     2     0     0 -4.856070649E+00 -1.546599790E+02  1.199425015E+02  2.159739464E+02  9.118800000E+01  0.00000E+00  9.000E+00
     -13     1     3     3     0     0 -1.652216336E+01  4.952557412E+00  2.415762082E+00  1.741714058E+01  1.057000000E-01  0.00000E+00  9.000E+00
      13     1     3     3     0     0  1.166609271E+01 -1.596125364E+02  1.175267395E+02  1.985568058E+02  1.057000000E-01  0.00000E+00  9.000E+00
       2     1     1     2   511     0 -1.678385352E+01 -1.503170072E+01  3.490090117E+01  4.154312901E+01  3.300000000E-01  0.00000E+00  9.000E+00
       1     1     1     2   502     0  2.847008961E+01  1.721402024E+02 -9.617561940E+00  1.747438173E+02  3.300000000E-01  0.00000E+00  9.000E+00
      21     1     1     2   501   511 -6.830165447E+00 -2.448522729E+00 -3.400370489E+01  3.476921583E+01  1.430511475E-06  0.00000E+00  9.000E+00
</event>
<event>
      8  10001  1.53757E-02  3.39697E+01 -1.00000E+00  1.52908E-01
       3    -1     0     0   501     0  0.000000000E+00  0.000000000E+00  1.387088826E+02  1.387088826E+02  0.000000000E+00  0.00000E+00  9.000E+00
       2    -1     0     0   502     0  0.000000000E+00  0.000000000E+00 -8.931018623E+02  8.931018623E+02  0.000000000E+00  0.00000E+00  9.000E+00
      23     2     1     2     0     0  4.407413891E+01  2.856580565E+01 -5.483021263E+02  5.583090614E+02  9.118800000E+01  0.00000E+00  9.000E+00
     -13     1     3     3     0     0  3.179236122E+01  5.813886669E+01 -4.517810472E+02  4.566147258E+02  1.057000000E-01  0.00000E+00  9.000E+00
      13     1     3     3     0     0  1.228177770E+01 -2.957306104E+01 -9.652107909E+01  1.016943356E+02  1.057000000E-01  0.00000E+00  9.000E+00
       3     1     1     2   501     0 -1.436513016E+01 -3.063086756E+01 -3.360755536E+02  3.377745324E+02  5.000000000E-01  0.00000E+00  9.000E+00
       2     1     1     2   511     0 -2.257761961E+01  1.650517993E+00  4.434621406E+01  4.979125142E+01  3.300000000E-01  0.00000E+00  9.000E+00
      21     1     1     2   502   511 -7.131389143E+00  4.145439142E-01  8.563848615E+01  8.593589976E+01  2.861022949E-06  0.00000E+00  9.000E+00
</event>
<event>
      8  10001  1.05662E-02  4.57110E+02 -1.00000E+00  1.01508E-01
       2    -1     0     0   501     0  0.000000000E+00  0.000000000E+00  3.233633630E+02  3.233633630E+02  0.000000000E+00  0.00000E+00  9.000E+00
       1    -1     0     0   502     0  0.000000000E+00  0.000000000E+00 -5.091334736E+02  5.091334736E+02  0.000000000E+00  0.00000E+00  9.000E+00
      23     2     1     2     0     0  1.323903152E+01 -7.417149821E+01  6.222925690E+01  1.336578275E+02  9.118800000E+01  0.00000E+00  9.000E+00
     -13     1     3     3     0     0  1.218058230E+01 -5.757016957E+01 -9.867886772E+00  5.966638394E+01  1.057000000E-01  0.00000E+00  9.000E+00
      13     1     3     3     0     0  1.058449213E+00 -1.660132863E+01  7.209714367E+01  7.399144359E+01  1.057000000E-01  0.00000E+00  9.000E+00
       1     1     1     2   501     0  1.252450541E+02 -4.032605238E+01 -1.001480536E+02  1.653549383E+02  3.300000000E-01  0.00000E+00  9.000E+00
       2     1     1     2   512     0 -1.744744804E+02 -6.045369924E+01 -2.627209292E+02  3.211205220E+02  3.300000000E-01  0.00000E+00  9.000E+00
      21     1     1     2   502   512  3.599039480E+01  1.749512498E+02  1.148696153E+02  2.123635488E+02  0.000000000E+00  0.00000E+00  9.000E+00
</event>
<event>
      8  10001  1.10587E-02  7.12042E+02 -1.00000E+00  9.60525E-02
       1    -1     0     0   501     0  0.000000000E+00  0.000000000E+00  1.312693522E+02  1.312693522E+02  0.000000000E+00  0.00000E+00  9.000E+00
       2    -1     0     0   502     0  0.000000000E+00  0.000000000E+00 -2.800375301E+03  2.800375301E+03  0.000000000E+00  0.00000E+00  9.000E+00
      23     2     1     2     0     0  2.241624633E+02  1.017091358E+02 -2.635444111E+01  2.638244987E+02  9.118800000E+01  0.00000E+00  9.000E+00
     -13     1     3     3     0     0 -1.268268824E+00  2.334055403E+01  2.102740075E+00  2.346961134E+01  1.057000000E-01  0.00000E+00  9.000E+00
      13     1     3     3     0     0  2.254307321E+02  7.836858173E+01 -2.845718119E+01  2.403548874E+02  1.057000000E-01  0.00000E+00  9.000E+00
       2     1     1     2   511     0  5.319956176E+00 -6.171655514E+00 -2.270042840E+00  8.464824865E+00  3.300000000E-01  0.00000E+00  9.000E+00
       1     1     1     2   502     0 -1.638178035E+02 -8.514506479E+01 -9.619004478E+02  9.794582866E+02  3.300000000E-01  0.00000E+00  9.000E+00
      21     1     1     2   501   511 -6.566461590E+01 -1.039241545E+01 -1.678581017E+03  1.679897043E+03  4.825252777E-05  0.00000E+00  9.000E+00
</event>
<event>
      8  10001  1.09252E-02  1.47159E+02 -1.00000E+00  1.18838E-01
       1    -1     0     0   501     0  0.000000000E+00  0.000000000E+00  1.831492463E+02  1.831492463E+02  0.000000000E+00  0.00000E+00  9.000E+00
       2    -1     0     0   502     0  0.000000000E+00  0.000000000E+00 -1.896092183E+02  1.896092183E+02  0.000000000E+00  0.00000E+00  9.000E+00
      23     2     1     2     0     0 -4.806454974E+01  4.118976399E+01  3.066023576E+01  1.151611870E+02  9.118800000E+01  0.00000E+00  9.000E+00
     -13     1     3     3     0     0 -7.485466498E+01  3.230686576E+01  3.017065718E+01  8.693235399E+01  1.057000000E-01  0.00000E+00  9.000E+00
      13     1     3     3     0     0  2.679011524E+01  8.882898233E+00  4.895785886E-01  2.822883305E+01  1.057000000E-01  0.00000E+00  9.000E+00
       2     1     1     2   511     0  8.498864764E+01  5.239744850E+01  2.752349314E+01  1.035674390E+02  3.300000000E-01  0.00000E+00  9.000E+00
       1     1     1     2   502     0 -5.858715264E+00 -7.240548305E+01  7.142246062E+00  7.299314419E+01  3.300000000E-01  0.00000E+00  9.000E+00
      21     1     1     2   501   511 -3.106538263E+01 -2.118172945E+01 -7.178594700E+01  8.103669445E+01  2.132480600E-06  0.00000E+00  9.000E+00
</event>
<event>
      8  10001  1.06015E-02  2.78354E+02 -1.00000E+00  1.08415E-01
       1    -1     0     0   501     0  0.000000000E+00  0.000000000E+00  1.289623152E+02  1.289623152E+02  0.000000000E+00  0.00000E+00  9.000E+00
       2    -1     0     0   502     0  0.000000000E+00  0.000000000E+00 -2.560615318E+03  2.560615318E+03  0.000000000E+00  0.00000E+00  9.000E+00
      23     2     1     2     0     0  4.463387999E+02 -9.328005270E+01 -1.532681832E+03  1.601670484E+03  9.118800000E+01  0.00000E+00  9.000E+00
     -13     1     3     3     0     0  1.314134316E+01 -1.072895473E+01 -1.351729793E+02  1.362334426E+02  1.057000000E-01  0.00000E+00  9.000E+00
      13     1     3     3     0     0  4.331974567E+02 -8.255109796E+01 -1.397508852E+03  1.465437042E+03  1.057000000E-01  0.00000E+00  9.000E+00
       1     1     1     2   501     0 -2.807947716E+02  5.803412774E+01 -8.172199668E+02  8.660613413E+02  3.300000000E-01  0.00000E+00  9.000E+00
       2     1     1     2   511     0  1.620714390E+01  1.141451652E+00  5.786303932E+00  1.725006199E+01  3.300000000E-01  0.00000E+00  9.000E+00
      21     1     1     2   502   511 -1.817511722E+02  3.410447331E+01 -8.753750803E+01  2.045957453E+02  1.198750028E-05  0.00000E+00  9.000E+00
</event>
<event>
      8  10001  1.07352E-02  2.86064E+02 -1.00000E+00  1.08010E-01
      -2    -1     0     0     0   501  0.000000000E+00  0.000000000E+00  2.461609077E+01  2.461609077E+01  0.000000000E+00  0.00000E+00  9.000E+00
       2    -1     0     0   502     0  0.000000000E+00  0.000000000E+00 -3.539845327E+03  3.539845327E+03  0.000000000E+00  0.00000E+00  9.000E+00
      23     2     1     2     0     0 -2.334055806E+02 -8.927688625E+01 -1.902434176E+03  1.920942366E+03  9.118800000E+01  0.00000E+00  9.000E+00
     -13     1     3     3     0     0 -2.348989555E+02 -9.719151953E+01 -1.879932262E+03  1.897042180E+03  1.057000000E-01  0.00000E+00  9.000E+00
      13     1     3     3     0     0  1.493374859E+00  7.914633285E+00 -2.250191339E+01  2.390018551E+01  1.057000000E-01  0.00000E+00  9.000E+00
      -1     1     1     2     0   501  1.272417907E+02  4.384979433E+01 -7.016643551E+02  7.144552147E+02  3.300000000E-01  0.00000E+00  9.000E+00
       1     1     1     2   512     0 -1.752925689E+01 -1.095928344E+01 -3.882870975E+02  3.888371892E+02  3.300000000E-01  0.00000E+00  9.000E+00
      21     1     1     2   502   512  1.236930468E+02  5.638637536E+01 -5.228436083E+02  5.402266486E+02  1.078959322E-05  0.00000E+00  9.000E+00
</event>
<event>
      8  10001  1.05215E-02  1.14200E+03 -1.00000E+00  9.08570E-02
       2    -1     0     0   501     0  0.000000000E+00  0.000000000E+00  1.813831531E+03  1.813831531E+03  0.000000000E+00  0.00000E+00  9.000E+00
       1    -1     0     0   502     0  0.000000000E+00  0.000000000E+00 -2.878571853E+02  2.878571853E+02  0.000000000E+00  0.00000E+00  9.000E+00
      23     2     1     2     0     0  1.563669455E+00 -3.078355748E+01  5.807127545E+02  5.886362434E+02  9.118800000E+01  0.00000E+00  9.000E+00
     -13     1     3     3     0     0 -4.418282617E+01 -1.038020568E+01  2.389276430E+02  2.432001245E+02  1.057000000E-01  0.00000E+00  9.000E+00
      13     1     3     3     0     0  4.574649563E+01 -2.040335180E+01  3.417851116E+02  3.454361190E+02  1.057000000E-01  0.00000E+00  9.000E+00
       1     1     1     2   511     0 -7.208465382E+01 -1.126838427E+02  5.150739925E+02  5.321608519E+02  3.300000000E-01  0.00000E+00  9.000E+00
       2     1     1     2   502     0 -3.333693600E+01 -3.607019829E+02  2.269813970E+02  4.274785787E+02  3.300000000E-01  0.00000E+00  9.000E+00
      21     1     1     2   501   511  1.038579204E+02  5.041693831E+02  2.032062012E+02  5.534130417E+02  1.009274029E-05  0.00000E+00  9.000E+00
</event>
<event>
      8  10001  1.10577E-02  7.96023E+01 -1.00000E+00  1.31031E-01
      21    -1     0     0   501   511  0.000000000E+00  0.000000000E+00  4.876742284E+02  4.876742284E+02  0.000000000E+00  0.00000E+00  9.000E+00
      -3    -1     0     0     0   502  0.000000000E+00  0.000000000E+00 -1.400649908E+02  1.400649908E+02  0.000000000E+00  0.00000E+00  9.000E+00
      23     2     1     2     0     0  6.674500717E+01 -1.462280642E+02  6.900394827E+01  1.972671766E+02  9.118800000E+01  0.00000E+00  9.000E+00
     -13     1     3     3     0     0  6.631430360E+01 -1.258420838E+02  1.930736708E+01  1.435500001E+02  1.057000000E-01  0.00000E+00  9.000E+00
      13     1     3     3     0     0  4.307035678E-01 -2.038598042E+01  4.969658120E+01  5.371717657E+01  1.057000000E-01  0.00000E+00  9.000E+00
       4     1     1     2   501     0 -2.036573158E+01  1.203143272E+02  1.721066508E+02  2.109816333E+02  1.500000000E+00  0.00000E+00  9.000E+00
      -3     1     1     2     0   502 -7.844950205E-01  9.115982175E+01  6.115401742E+00  9.136945153E+01  5.000000000E-01  0.00000E+00  9.000E+00
      -4     1     1     2     0   511 -4.559478056E+01 -6.524608472E+01  1.003832367E+02  1.281209577E+02  1.500000000E+00  0.00000E+00  9.000E+00
</event>
<event>
      8  10001  1.86775E-02  6.00750E+01 -1.00000E+00  1.37516E-01
      -2    -1     0     0     0   501  0.000000000E+00  0.000000000E+00  1.997524967E+02  1.997524967E+02  0.000000000E+00  0.00000E+00  9.000E+00
       2    -1     0     0   502     0  0.000000000E+00  0.000000000E+00 -9.200999178E+01  9.200999178E+01  0.000000000E+00  0.00000E+00  9.000E+00
      23     2     1     2     0     0 -9.196158092E+01  3.131188749E+01  1.172058181E+01  1.337534674E+02  9.118800000E+01  0.00000E+00  9.000E+00
     -13     1     3     3     0     0 -5.798274146E+01  6.177680858E+01 -5.672268105E+00  8.491500564E+01  1.057000000E-01  0.00000E+00  9.000E+00
      13     1     3     3     0     0 -3.397883946E+01 -3.046492109E+01  1.739284991E+01  4.883846177E+01  1.057000000E-01  0.00000E+00  9.000E+00
      -1     1     1     2     0   501  8.925570828E+01 -1.842577932E+01  5.356215258E+01  1.057123640E+02  3.300000000E-01  0.00000E+00  9.000E+00
       1     1     1     2   511     0 -3.065333371E+00 -2.719478055E+00 -3.171150685E+00  5.192005994E+00  3.300000000E-01  0.00000E+00  9.000E+00
      21     1     1     2   502   511  5.771206011E+00 -1.016663012E+01  4.563092124E+01  4.710465115E+01  6.743495762E-07  0.00000E+00  9.000E+00
</event>
<event>
      8  10001  1.08389E-02  1.22780E+02 -1.00000E+00  1.22184E-01
      -1    -1     0     0     0   501  0.000000000E+00  0.000000000E+00  2.157438890E+02  2.157438890E+02  0.000000000E+00  0.00000E+00  9.000E+00
      -2    -1     0     0     0   502  0.000000000E+00  0.000000000E+00 -2.683836341E+02  2.683836341E+02  0.000000000E+00  0.00000E+00  9.000E+00
      23     2     1     2     0     0 -1.132675609E+02 -1.537516487E+02  3.033762821E+01  2.137866527E+02  9.118800000E+01  0.00000E+00  9.000E+00
     -13     1     3     3     0     0 -1.900898150E+01 -9.692790333E+01 -2.895542173E+00  9.881677569E+01  1.057000000E-01  0.00000E+00  9.000E+00
      13     1     3     3     0     0 -9.425857937E+01 -5.682374537E+01  3.323317038E+01  1.149698770E+02  1.057000000E-01  0.00000E+00  9.000E+00
      -2     1     1     2     0   512  1.833519073E+01  1.926424811E+01  3.962462036E+01  4.772326385E+01  3.300000000E-01  0.00000E+00  9.000E+00
      -1     1     1     2     0   502  6.293715835E+01  1.189336602E+02 -5.332688736E+01  1.447417260E+02  3.300000000E-01  0.00000E+00  9.000E+00
      21     1     1     2   512   501  3.199521179E+01  1.555374043E+01 -6.927510633E+01  7.787588058E+01  1.348699152E-06  0.00000E+00  9.000E+00
</event>
<event>
      8  10001  1.16083E-02  4.57288E+01 -1.00000E+00  1.44465E-01
      -1    -1     0     0     0   501  0.000000000E+00  0.000000000E+00  6.267750357E+02  6.267750357E+02  0.000000000E+00  0.00000E+00  9.000E+00
      -4    -1     0     0     0   502  0.000000000E+00  0.000000000E+00 -5.809090068E+01  5.809090068E+01  0.000000000E+00  0.00000E+00  9.000E+00
      23     2     1     2     0     0  1.244974493E+02 -9.600251966E+01  2.862682497E+02  3.390882788E+02  9.118800000E+01  0.00000E+00  9.000E+00
     -13     1     3     3     0     0  4.828525965E+01 -4.501350823E+01  4.216344476E+01  7.832910997E+01  1.057000000E-01  0.00000E+00  9.000E+00
      13     1     3     3     0     0  7.621218961E+01 -5.098901143E+01  2.441048050E+02  2.607591688E+02  1.057000000E-01  0.00000E+00  9.000E+00
      -2     1     1     2     0   501 -1.038550669E+02  9.683576062E+01  1.791492058E+02  2.285991826E+02  3.300000000E-01  0.00000E+00  9.000E+00
      -3     1     1     2     0   511 -2.782167641E+01 -8.761755010E+00  2.570271329E+01  3.888050282E+01  5.000000000E-01  0.00000E+00  9.000E+00
      21     1     1     2   511   502  7.179294011E+00  7.928514053E+00  7.756396616E+01  7.829797216E+01  9.536743164E-07  0.00000E+00  9.000E+00
</event>
<event>
      8  10001  1.92659E-02  2.65869E+01 -1.00000E+00  1.60673E-01
       2    -1     0     0   501     0  0.000000000E+00  0.000000000E+00  6.125726135E+01  6.125726135E+01  0.000000000E+00  0.00000E+00  9.000E+00
       2    -1     0     0   502     0  0.000000000E+00  0.000000000E+00 -1.278861903E+02  1.278861903E+02  0.000000000E+00  0.00000E+00  9.000E+00
      23     2     1     2     0     0 -2.614037451E+01 -1.322670391E+01 -8.148885961E+01  1.257535306E+02  9.118800000E+01  0.00000E+00  9.000E+00
     -13     1     3     3     0     0  2.259660377E+01 -8.362077817E+00 -7.191944604E+01  7.584819536E+01  1.057000000E-01  0.00000E+00  9.000E+00
      13     1     3     3     0     0 -4.873697827E+01 -4.864626089E+00 -9.569413569E+00  4.990533525E+01  1.057000000E-01  0.00000E+00  9.000E+00
       2     1     1     2   512     0  3.205083009E+00 -5.972009115E+00  5.799848669E+00  8.926622796E+00  3.300000000E-01  0.00000E+00  9.000E+00
       2     1     1     2   502     0  2.625524285E+01  9.896556237E+00  2.374975138E+01  3.676192586E+01  3.300000000E-01  0.00000E+00  9.000E+00
      21     1     1     2   501   512 -3.319951351E+00  9.302156784E+00 -1.468966939E+01  1.770137240E+01  4.460403188E-07  0.00000E+00  9.000E+00
</event>
<event>
      8  10001  1.05439E-02  1.07299E+03 -1.00000E+00  9.15096E-02
       1    -1     0     0   501     0  0.000000000E+00  0.000000000E+00  1.691579389E+02  1.691579389E+02  0.000000000E+00  0.00000E+00  9.000E+00
       1    -1     0     0   502     0  0.000000000E+00  0.000000000E+00 -2.845095800E+03  2.845095800E+03  0.000000000E+00  0.00000E+00  9.000E+00
      23     2     1     2     0     0  6.082800678E+01  2.297117950E+01 -3.950718350E+01  1.187593802E+02  9.118800000E+01  0.00000E+00  9.000E+00
     -13     1     3     3     0     0  3.448981157E+01  3.487027234E+01 -6.416888957E+01  8.076596162E+01  1.057000000E-01  0.00000E+00  9.000E+00
      13     1     3     3     0     0  2.633819521E+01 -1.189909283E+01  2.466170608E+01  3.799341859E+01  1.057000000E-01  0.00000E+00  9.000E+00
       1     1     1     2   511     0  3.263747488E+01  2.566404617E+01 -1.695246390E+03  1.695754782E+03  3.300000000E-01  0.00000E+00  9.000E+00
       1     1     1     2   502     0  4.413509355E+01  1.539091982E+01 -1.025202932E+03  1.026267971E+03  3.300000000E-01  0.00000E+00  9.000E+00
      21     1     1     2   501   511 -1.376005752E+02 -6.402614550E+01  8.401864442E+01  1.734716064E+02  1.013769704E-05  0.00000E+00  9.000E+00
</event>
<event>
      8  10001  1.05466E-02  3.46165E+02 -1.00000E+00  1.05265E-01
       2    -1     0     0   501     0  0.000000000E+00  0.000000000E+00  1.416328801E+03  1.416328801E+03  0.000000000E+00  0.00000E+00  9.000E+00
       3    -1     0     0   502     0  0.000000000E+00  0.000000000E+00 -5.934547404E+02  5.934547404E+02  0.000000000E+00  0.00000E+00  9.000E+00
      23     2     1     2     0     0  4.052313862E+02  7.786646956E+02  1.877071742E+02  9.022640517E+02  9.118800000E+01  0.00000E+00  9.000E+00
     -13     1     3     3     0     0  2.100797295E+02  3.061768710E+02  7.856078603E+01  3.795386375E+02  1.057000000E-01  0.00000E+00  9.000E+00
      13     1     3     3     0     0  1.951516567E+02  4.724878245E+02  1.091463882E+02  5.227254142E+02  1.057000000E-01  0.00000E+00  9.000E+00
       1     1     1     2   511     0 -2.004278201E+01  1.073636565E+01  2.572246764E+01  3.433273801E+01  3.300000000E-01  0.00000E+00  9.000E+00
       4     1     1     2   502     0 -3.116152413E+02 -5.674191310E+02  4.140603316E+02  7.684508683E+02  1.500000000E+00  0.00000E+00  9.000E+00
      21     1     1     2   501   511 -7.357336285E+01 -2.219819302E+02  1.953840873E+02  3.047358834E+02  9.725607898E-06  0.00000E+00  9.000E+00
</event>
<event>
      8  10001  1.23958E-02  4.04072E+02 -1.00000E+00  1.03141E-01
      -4    -1     0     0     0   501  0.000000000E+00  0.000000000E+00  8.761236724E+01  8.761236724E+01  0.000000000E+00  0.00000E+00  9.000E+00
       2    -1     0     0   502     0  0.000000000E+00  0.000000000E+00 -6.968273578E+02  6.968273578E+02  0.000000000E+00  0.00000E+00  9.000E+00
      23     2     1     2     0     0 -1.087023352E+01 -1.585953068E+01 -3.828965808E+02  3.940745229E+02  9.118800000E+01  0.00000E+00  9.000E+00
     -13     1     3     3     0     0  3.563857459E+01  1.325705623E+01 -1.414865543E+02  1.465070434E+02  1.057000000E-01  0.00000E+00  9.000E+00
      13     1     3     3     0     0 -4.650880811E+01 -2.911658691E+01 -2.414100265E+02  2.475674795E+02  1.057000000E-01  0.00000E+00  9.000E+00
      -3     1     1     2     0   501  8.609376776E+00  4.276791018E+01 -4.855623465E+01  6.527766412E+01  5.000000000E-01  0.00000E+00  9.000E+00
       1     1     1     2   511     0  2.216960654E+01 -2.652954197E+01 -2.488618518E+02  2.512521408E+02  3.300000000E-01  0.00000E+00  9.000E+00
      21     1     1     2   502   511 -1.990874979E+01 -3.788375285E-01  7.109967677E+01  7.383539715E+01  2.697398305E-06  0.00000E+00  9.000E+00
</event>
<event>
      8  10001  1.15956E-02  3.89417E+02 -1.00000E+00  1.03640E-01
      -2    -1     0     0     0   501  0.000000000E+00  0.000000000E+00  2.218580317E+02  2.218580317E+02  0.000000000E+00  0.00000E+00  9.000E+00
      -1    -1     0     0     0   502  0.000000000E+00  0.000000000E+00 -3.089086512E+02  3.089086512E+02  0.000000000E+00  0.00000E+00  9.000E+00
      23     2     1     2     0     0 -7.214645951E+01 -1.426802133E+02 -2.098434984E+02  2.791277486E+02  9.118800000E+01  0.00000E+00  9.000E+00
     -13     1     3     3     0     0  1.002590906E+01  5.656518384E+00 -2.907068965E+01  3.126709487E+01  1.057000000E-01  0.00000E+00  9.000E+00
      13     1     3     3     0     0 -8.217236857E+01 -1.483367316E+02 -1.807728087E+02  2.478606537E+02  1.057000000E-01  0.00000E+00  9.000E+00
      -1     1     1     2     0   501  2.916893071E+01  4.119934212E+01  1.897448301E+01  5.392914069E+01  3.300000000E-01  0.00000E+00  9.000E+00
      -2     1     1     2     0   512 -9.634688756E+00 -1.422850825E+01 -1.566839432E+01  2.325693778E+01  3.300000000E-01  0.00000E+00  9.000E+00
      21     1     1     2   512   502  5.261221756E+01  1.157093794E+02  1.194867901E+02  1.744528559E+02  5.046370146E-06  0.00000E+00  9.000E+00
</event>
<event>
      8  10001  1.27670E-02  1.74332E+02 -1.00000E+00  1.15872E-01
       2    -1     0     0   501     0  0.000000000E+00  0.000000000E+00  9.556726813E+01  9.556726813E+01  0.000000000E+00  0.00000E+00  9.000E+00
       1    -1     0     0   502     0  0.000000000E+00  0.000000000E+00 -4.384368110E+02  4.384368110E+02  0.000000000E+00  0.00000E+00  9.000E+00
      23     2     1     2     0     0 -9.567063372E+01 -4.364753838E+00 -1.615026242E+02  2.087349280E+02  9.118800000E+01  0.00000E+00  9.000E+00
     -13     1     3     3     0     0  4.221587592E+00  2.452971493E+01 -1.494106367E+01  2.903059202E+01  1.057000000E-01  0.00000E+00  9.000E+00
      13     1     3     3     0     0 -9.989222131E+01 -2.889446877E+01 -1.465615605E+02  1.797043360E+02  1.057000000E-01  0.00000E+00  9.000E+00
       2     1     1     2   501     0  5.115670789E+01 -1.193693239E+01  1.193209702E+01  5.387005621E+01  3.300000000E-01  0.00000E+00  9.000E+00
       1     1     1     2   511     0 -1.605405673E+00  1.819238992E+00 -2.173796481E+02  2.173934389E+02  3.300000000E-01  0.00000E+00  9.000E+00
      21     1     1     2   502   511  4.611933150E+01  1.448244724E+01  2.408063243E+01  5.400565595E+01  2.185142372E-06  0.00000E+00  9.000E+00
</event>
<event>
      8  10001  1.15552E-02  1.90080E+02 -1.00000E+00  1.14416E-01
       2    -1     0     0   501     0  0.000000000E+00  0.000000000E+00  4.414311115E+02  4.414311115E+02  0.000000000E+00  0.00000E+00  9.000E+00
       1    -1     0     0   502     0  0.000000000E+00  0.000000000E+00 -9.355592036E+01  9.355592036E+01  0.000000000E+00  0.00000E+00  9.000E+00
      23     2     1     2     0     0 -6.435768799E+01  3.163238914E+01  2.158640432E+02  2.450613322E+02  9.118800000E+01  0.00000E+00  9.000E+00
     -13     1     3     3     0     0 -9.880562050E+00  4.651802727E+01  4.642801263E+01  6.646144670E+01  1.057000000E-01  0.00000E+00  9.000E+00
      13     1     3     3     0     0 -5.447712594E+01 -1.488563813E+01  1.694360305E+02  1.785998855E+02  1.057000000E-01  0.00000E+00  9.000E+00
       1     1     1     2   512     0 -3.893982804E+01 -4.632444651E+01  6.323326598E+01  8.752610685E+01  3.300000000E-01  0.00000E+00  9.000E+00
       2     1     1     2   502     0  8.465544221E+01  1.663552087E+00  1.197051802E+02  1.466245217E+02  3.300000000E-01  0.00000E+00  9.000E+00
      21     1     1     2   501   512  1.864207383E+01  1.302850528E+01 -5.092729817E+01  5.577507118E+01  6.743495762E-07  0.00000E+00  9.000E+00
</event>
<event>
      8  10001  1.05241E-02  9.48849E+02 -1.00000E+00  9.28253E-02
       1    -1     0     0   501     0  0.000000000E+00  0.000000000E+00  9.409294276E+02  9.409294276E+02  0.000000000E+00  0.00000E+00  9.000E+00
       2    -1     0     0   502     0  0.000000000E+00  0.000000000E+00 -6.677569467E+02  6.677569467E+02  0.000000000E+00  0.00000E+00  9.000E+00
      23     2     1     2     0     0  2.561059611E+02  1.940906419E+02  1.160398290E+02  3.536126890E+02  9.118800000E+01  0.00000E+00  9.000E+00
     -13     1     3     3     0     0  6.260529809E+01  4.494230876E+00  2.832328218E+01  6.886102632E+01  1.057000000E-01  0.00000E+00  9.000E+00
      13     1     3     3     0     0  1.935006630E+02  1.895964110E+02  8.771654686E+01  2.847516627E+02  1.057000000E-01  0.00000E+00  9.000E+00
       2     1     1     2   501     0 -8.809206938E+01  3.222946430E+02 -7.772647711E+01  3.430387205E+02  3.300000000E-01  0.00000E+00  9.000E+00
       1     1     1     2   511     0  6.311133621E+00 -1.096037284E+02 -2.393907522E+02  2.633644790E+02  3.300000000E-01  0.00000E+00  9.000E+00
      21     1     1     2   502   511 -1.743250253E+02 -4.067815565E+02  4.742498812E+02  6.486704857E+02  1.078959322E-05  0.00000E+00  9.000E+00
</event>
<event>
      8  10001  1.06952E-02  1.20386E+03 -1.00000E+00  9.03121E-02
       2    -1     0     0   501     0  0.000000000E+00  0.000000000E+00  1.512246939E+03  1.512246939E+03  0.000000000E+00  0.00000E+00  9.000E+00
       1    -1     0     0   502     0  0.000000000E+00  0.000000000E+00 -4.530401122E+02  4.530401122E+02  0.000000000E+00  0.00000E+00  9.000E+00
      23     2     1     2     0     0  8.782118701E+00 -8.432480204E+01 -2.949729553E+02  3.201750983E+02  9.118800000E+01  0.00000E+00  9.000E+00
     -13     1     3     3     0     0  1.042970287E+01 -4.256886277E+00  2.975159899E+00  1.165171797E+01  1.057000000E-01  0.00000E+00  9.000E+00
      13     1     3     3     0     0 -1.647584167E+00 -8.006791577E+01 -2.979481152E+02  3.085233803E+02  1.057000000E-01  0.00000E+00  9.000E+00
       2     1     1     2   501     0  6.080742253E+01  1.547661298E+02  1.136429406E+02  2.014073594E+02  3.300000000E-01  0.00000E+00  9.000E+00
       1     1     1     2   512     0 -1.174156731E+02 -1.887050179E+02  2.746431496E+01  2.239428980E+02  3.300000000E-01  0.00000E+00  9.000E+00
      21     1     1     2   502   512  4.782613186E+01  1.182636902E+02  1.213072527E+03  1.219761696E+03  3.411968960E-05  0.00000E+00  9.000E+00
</event>
<event>
      8  10001  1.10032E-02  5.10629E+02 -1.00000E+00  1.00087E-01
       2    -1     0     0   501     0  0.000000000E+00  0.000000000E+00  1.822264877E+03  1.822264877E+03  0.000000000E+00  0.00000E+00  9.000E+00
       1    -1     0     0   502     0  0.000000000E+00  0.000000000E+00 -7.407376251E+01  7.407376251E+01  0.000000000E+00  0.00000E+00  9.000E+00
      23     2     1     2     0     0  5.709399786E+01 -1.504207946E+02  1.355333224E+03  1.367892371E+03  9.118800000E+01  0.00000E+00  9.000E+00
     -13     1     3     3     0     0  3.063077183E+01 -1.284643156E+02  1.252909819E+03  1.259850924E+03  1.057000000E-01  0.00000E+00  9.000E+00
      13     1     3     3     0     0  2.646322603E+01 -2.195647900E+01  1.024234045E+02  1.080414470E+02  1.057000000E-01  0.00000E+00  9.000E+00
       1     1     1     2   511     0  3.080781489E+01 -1.075012096E+01  1.393232656E+02  1.430935631E+02  3.300000000E-01  0.00000E+00  9.000E+00
       2     1     1     2   502     0  3.022051794E+00  1.206200982E+02  2.589167545E+02  2.856507230E+02  3.300000000E-01  0.00000E+00  9.000E+00
      21     1     1     2   501   511 -9.092386455E+01  4.055081734E+01 -5.382129548E+00  9.970198218E+01  2.528108366E-06  0.00000E+00  9.000E+00
</event>
<event>
      8  10001  1.14597E-02  5.08952E+01 -1.00000E+00  1.41655E-01
       2    -1     0     0   501     0  0.000000000E+00  0.000000000E+00  4.784734989E+02  4.784734989E+02  0.000000000E+00  0.00000E+00  9.000E+00
       3    -1     0     0   502     0  0.000000000E+00  0.000000000E+00 -9.941516506E+01  9.941516506E+01  0.000000000E+00  0.00000E+00  9.000E+00
      23     2     1     2     0     0  1.210179475E+02 -1.166338327E+02  2.517942654E+02  3.161714693E+02  9.118800000E+01  0.00000E+00  9.000E+00
     -13     1     3     3     0     0  8.571013000E+01 -1.982050385E+01  1.088760073E+02  1.399752653E+02  1.057000000E-01  0.00000E+00  9.000E+00
      13     1     3     3     0     0  3.530781748E+01 -9.681332888E+01  1.429182581E+02  1.761962039E+02  1.057000000E-01  0.00000E+00  9.000E+00
       1     1     1     2   511     0  9.611122075E+00  9.216044678E-01  6.325391572E+01  6.398741889E+01  3.300000000E-01  0.00000E+00  9.000E+00
       4     1     1     2   502     0 -1.281061936E+02  1.112617719E+02  7.506684625E+01  1.855469217E+02  1.500000000E+00  0.00000E+00  9.000E+00
      21     1     1     2   501   511 -2.522875942E+00  4.450456312E+00 -1.105669348E+01  1.218285415E+01  3.769728732E-07  0.00000E+00  9.000E+00
</event>
<event>
      8  10001  1.05836E-02  5.21109E+02 -1.00000E+00  9.98308E-02
       1    -1     0     0   501     0  0.000000000E+00  0.000000000E+00  2.892627799E+03  2.892627799E+03  0.000000000E+00  0.00000E+00  9.000E+00
       2    -1     0     0   502     0  0.000000000E+00  0.000000000E+00 -4.759298006E+01  4.759298006E+01  0.000000000E+00  0.00000E+00  9.000E+00
      23     2     1     2     0     0 -1.085492855E+02 -1.307298937E+00  2.981734672E+02  3.301625725E+02  9.118800000E+01  0.00000E+00  9.000E+00
     -13     1     3     3     0     0 -6.168561338E+01  3.314073092E+01  2.306381847E+02  2.410340356E+02  1.057000000E-01  0.00000E+00  9.000E+00
      13     1     3     3     0     0 -4.686367215E+01 -3.444802985E+01  6.753528251E+01  8.912853687E+01  1.057000000E-01  0.00000E+00  9.000E+00
       2     1     1     2   501     0  6.340164682E+01  1.233587876E+02  6.825154141E+02  6.964657628E+02  3.300000000E-01  0.00000E+00  9.000E+00
       1     1     1     2   511     0 -7.256164649E+00  2.958014065E+01 -1.025507153E+01  3.213894894E+01  3.300000000E-01  0.00000E+00  9.000E+00
      21     1     1     2   502   511  5.240380336E+01 -1.516316293E+02  1.874601009E+03  1.881453495E+03  3.737624730E-05  0.00000E+00  9.000E+00
</event>
<event>
      8  10001  2.29901E-01  1.00462E+02 -1.00000E+00  1.26122E-01
       2    -1     0     0   501     0  0.000000000E+00  0.000000000E+00  1.317751850E+03  1.317751850E+03  0.000000000E+00  0.00000E+00  9.000E+00
      -2    -1     0     0     0   502  0.000000000E+00  0.000000000E+00 -1.957302856E+01  1.957302856E+01  0.000000000E+00  0.00000E+00  9.000E+00
      23     2     1     2     0     0 -4.377176131E+00 -1.181350470E+00  1.464930501E+02  1.726152378E+02  9.118800000E+01  0.00000E+00  9.000E+00
     -13     1     3     3     0     0 -4.140679133E+00  1.163619916E+01 -9.818718293E+00  1.577861705E+01  1.057000000E-01  0.00000E+00  9.000E+00
      13     1     3     3     0     0 -2.364969983E-01 -1.281754963E+01  1.563117684E+02  1.568366208E+02  1.057000000E-01  0.00000E+00  9.000E+00
       2     1     1     2   501     0 -4.412828705E+00 -2.157980177E+00  1.062170067E+03  1.062181477E+03  3.300000000E-01  0.00000E+00  9.000E+00
      -2     1     1     2     0   512 -7.326059105E+00  5.967029140E+00  8.508524779E+01  8.560890648E+01  3.300000000E-01  0.00000E+00  9.000E+00
      21     1     1     2   512   502  1.611606394E+01 -2.627698493E+00  4.430456396E+00  1.691925708E+01  1.910140557E-06  0.00000E+00  9.000E+00
</event>
<event>
      8  10001  1.29582E-02  5.30801E+02 -1.00000E+00  9.95994E-02
       2    -1     0     0   501     0  0.000000000E+00  0.000000000E+00  7.002394544E+01  7.002394544E+01  0.000000000E+00  0.00000E+00  9.000E+00
      -2    -1     0     0     0   502  0.000000000E+00  0.000000000E+00 -1.535842766E+03  1.535842766E+03  0.000000000E+00  0.00000E+00  9.000E+00
      23     2     1     2     0     0 -2.701079697E+01  4.864216831E+01  2.171588851E+01  1.090067652E+02  9.118800000E+01  0.00000E+00  9.000E+00
     -13     1     3     3     0     0 -3.628789852E+00  3.389597437E+01 -3.316249307E+01  4.755909286E+01  1.057000000E-01  0.00000E+00  9.000E+00
      13     1     3     3     0     0 -2.338200711E+01  1.474619394E+01  5.487838158E+01  6.144767229E+01  1.057000000E-01  0.00000E+00  9.000E+00
       2     1     1     2   511     0  7.416654992E+00  4.745362092E+00 -8.209225895E+00  1.204265429E+01  3.300000000E-01  0.00000E+00  9.000E+00
      -2     1     1     2     0   502  2.558333480E+01  2.113975018E+01 -1.616296391E+02  1.650019552E+02  3.300000000E-01  0.00000E+00  9.000E+00
      21     1     1     2   501   511 -5.989192824E+00 -7.452728059E+01 -1.317695844E+03  1.319815337E+03  3.051757813E-05  0.00000E+00  9.000E+00
</event>
<event>
      8  10001  1.21802E-02  1.02735E+02 -1.00000E+00  1.25670E-01
       2    -1     0     0   501     0  0.000000000E+00  0.000000000E+00  2.245451461E+01  2.245451461E+01  0.000000000E+00  0.00000E+00  9.000E+00
       1    -1     0     0   502     0  0.000000000E+00  0.000000000E+00 -1.200081951E+03  1.200081951E+03  0.000000000E+00  0.00000E+00  9.000E+00
      23     2     1     2     0     0  9.675442924E+01 -5.516019766E+00 -5.680540890E+02  5.834316973E+02  9.118800000E+01  0.00000E+00  9.000E+00
     -13     1     3     3     0     0  9.778599971E+01 -2.234199983E+00 -3.038491091E+02  3.192043008E+02  1.057000000E-01  0.00000E+00  9.000E+00
      13     1     3     3     0     0 -1.031570463E+00 -3.281819784E+00 -2.642049799E+02  2.642273965E+02  1.057000000E-01  0.00000E+00  9.000E+00
       2     1     1     2   501     0 -4.249366367E+01 -1.619943342E+01 -4.671353709E+02  4.693439003E+02  3.300000000E-01  0.00000E+00  9.000E+00
       1     1     1     2   511     0 -2.716320393E+01  2.871272306E+01 -1.351916844E+02  1.408515550E+02  3.300000000E-01  0.00000E+00  9.000E+00
      21     1     1     2   502   511 -2.709756164E+01 -6.997269867E+00 -7.246292161E+00  2.890931308E+01  1.627981697E-06  0.00000E+00  9.000E+00
</event>
<event>
      8  10001  2.09403E-02  4.37390E+01 -1.00000E+00  1.45667E-01
      -1    -1     0     0     0   501  0.000000000E+00  0.000000000E+00  2.269995623E+02  2.269995623E+02  0.000000000E+00  0.00000E+00  9.000E+00
      21    -1     0     0   512   502  0.000000000E+00  0.000000000E+00 -1.099409507E+02  1.099409507E+02  0.000000000E+00  0.00000E+00  9.000E+00
      23     2     1     2     0     0 -1.986748049E+01  6.765549821E+01 -2.790165714E+01  1.185990600E+02  9.118800000E+01  0.00000E+00  9.000E+00
     -13     1     3     3     0     0 -1.034447105E+01  8.706707996E+01 -6.096514711E+00  8.789120069E+01  1.057000000E-01  0.00000E+00  9.000E+00
      13     1     3     3     0     0 -9.523009447E+00 -1.941158175E+01 -2.180514243E+01  3.070785932E+01  1.057000000E-01  0.00000E+00  9.000E+00
      -2     1     1     2     0   501  1.604501064E+01  6.140291883E-01  1.410968099E+02  1.420078803E+02  3.300000000E-01  0.00000E+00  9.000E+00
      -3     1     1     2     0   502  1.790069873E+01 -2.686335402E+01 -1.026933701E+00  3.230138383E+01  5.000000000E-01  0.00000E+00  9.000E+00
       4     1     1     2   512     0 -1.407822888E+01 -4.140617337E+01  4.890392519E+00  4.403218892E+01  1.500000000E+00  0.00000E+00  9.000E+00
</event>
<event>
      8  10001  1.09439E-02  8.61633E+01 -1.00000E+00  1.29317E-01
      -2    -1     0     0     0   501  0.000000000E+00  0.000000000E+00  2.059260996E+01  2.059260996E+01  0.000000000E+00  0.00000E+00  9.000E+00
       4    -1     0     0   502     0  0.000000000E+00  0.000000000E+00 -1.235211029E+03  1.235211029E+03  0.000000000E+00  0.00000E+00  9.000E+00
      23     2     1     2     0     0  6.283274143E+01 -1.247278328E+01 -4.989184124E+02  5.112126341E+02  9.118800000E+01  0.00000E+00  9.000E+00
     -13     1     3     3     0     0  6.862920762E+01  1.538570089E+01 -2.229401312E+02  2.337712583E+02  1.057000000E-01  0.00000E+00  9.000E+00
      13     1     3     3     0     0 -5.796466197E+00 -2.785848417E+01 -2.759782812E+02  2.774413758E+02  1.057000000E-01  0.00000E+00  9.000E+00
      -1     1     1     2     0   511  2.937029307E+01  5.694152607E+01 -1.128715877E+02  1.297885038E+02  3.300000000E-01  0.00000E+00  9.000E+00
       3     1     1     2   502     0 -7.335611207E+01 -3.246570194E+01 -2.817597997E+02  2.929572934E+02  5.000000000E-01  0.00000E+00  9.000E+00
      21     1     1     2   511   501 -1.884692243E+01 -1.200304085E+01 -3.210686192E+02  3.218452077E+02  3.814697266E-06  0.00000E+00  9.000E+00
</event>
<event>
      8  10001  1.05306E-02  6.11305E+02 -1.00000E+00  9.78617E-02
       2    -1     0     0   501     0  0.000000000E+00  0.000000000E+00  1.814028645E+03  1.814028645E+03  0.000000000E+00  0.00000E+00  9.000E+00
      -2    -1     0     0     0   502  0.000000000E+00  0.000000000E+00 -2.979303329E+02  2.979303329E+02  0.000000000E+00  0.00000E+00  9.000E+00
      23     2     1     2     0     0 -1.782603644E+01 -2.107763033E+02  9.178107699E+02  9.462749486E+02  9.118800000E+01  0.00000E+00  9.000E+00
     -13     1     3     3     0     0  3.452726731E+01 -5.730564140E+01  3.157092683E+02  3.227203464E+02  1.057000000E-01  0.00000E+00  9.000E+00
      13     1     3     3     0     0 -5.235330375E+01 -1.534706619E+02  6.021015016E+02  6.235546022E+02  1.057000000E-01  0.00000E+00  9.000E+00
       1     1     1     2   501     0  5.807360348E+01  2.320138640E+02 -7.537405681E+01  2.507674896E+02  3.300000000E-01  0.00000E+00  9.000E+00
      -1     1     1     2     0   511 -1.134723346E+02 -1.897930002E+02  4.706706971E+00  2.211777919E+02  3.300000000E-01  0.00000E+00  9.000E+00
      21     1     1     2   511   502  7.322476753E+01  1.685554394E+02  6.689548917E+02  6.937387475E+02  0.000000000E+00  0.00000E+00  9.000E+00
</event>
<event>
      8  10001  1.12147E-02  2.31594E+02 -1.00000E+00  1.11226E-01
       2    -1     0     0   501     0  0.000000000E+00  0.000000000E+00  3.445859610E+01  3.445859610E+01  0.000000000E+00  0.00000E+00  9.000E+00
       1    -1     0     0   502     0  0.000000000E+00  0.000000000E+00 -1.468362038E+03  1.468362038E+03  0.000000000E+00  0.00000E+00  9.000E+00
      23     2     1     2     0     0 -5.726048318E+01 -5.904935343E+01 -1.849835810E+02  2.220355054E+02  9.118800000E+01  0.00000E+00  9.000E+00
     -13     1     3     3     0     0 -4.675769880E+01 -8.816530059E+00 -2.444484208E+01  5.349369192E+01  1.057000000E-01  0.00000E+00  9.000E+00
      13     1     3     3     0     0 -1.050278438E+01 -5.023282337E+01 -1.605387389E+02  1.685418134E+02  1.057000000E-01  0.00000E+00  9.000E+00
       2     1     1     2   512     0  1.119148011E+01 -3.939025333E+01 -5.490800514E+01  6.849700148E+01  3.300000000E-01  0.00000E+00  9.000E+00
       1     1     1     2   502     0  7.370161291E+01  9.303052408E+01 -3.871324333E+02  4.049175669E+02  3.300000000E-01  0.00000E+00  9.000E+00
      21     1     1     2   501   512 -2.763260983E+01  5.409082670E+00 -8.068794221E+02  8.073705600E+02  2.157918644E-05  0.00000E+00  9.000E+00
</event>
<event>
      8  10001  1.76594E-02  5.97921E+01 -1.00000E+00  1.37630E-01
      -1    -1     0     0     0   501  0.000000000E+00  0.000000000E+00  6.858890119E+02  6.858890119E+02  0.000000000E+00  0.00000E+00  9.000E+00
       2    -1     0     0   502     0  0.000000000E+00  0.000000000E+00 -3.420335409E+02  3.420335409E+02  0.000000000E+00  0.00000E+00  9.000E+00
      23     2     1     2     0     0 -2.397266435E+01 -1.609319775E+02 -2.731352042E+02  3.307444347E+02  9.118800000E+01  0.00000E+00  9.000E+00
     -13     1     3     3     0     0 -1.431793684E+01  8.348254235E+00 -1.868576195E+01  2.497730042E+01  1.057000000E-01  0.00000E+00  9.000E+00
      13     1     3     3     0     0 -9.654727509E+00 -1.692802317E+02 -2.544494422E+02  3.057671343E+02  1.057000000E-01  0.00000E+00  9.000E+00
      -1     1     1     2     0   501  1.291621211E+01  1.679915570E+02  6.336265216E+02  6.556452315E+02  3.300000000E-01  0.00000E+00  9.000E+00
       2     1     1     2   511     0  1.258394295E+01  1.852584873E+00  8.176350012E+00  1.512446000E+01  3.300000000E-01  0.00000E+00  9.000E+00
      21     1     1     2   502   511 -1.527490705E+00 -8.912164376E+00 -2.481219645E+01  2.640842658E+01  1.168007728E-06  0.00000E+00  9.000E+00
</event>
<event>
      8  10001  2.62660E-01  6.40779E+01 -1.00000E+00  1.35972E-01
       1    -1     0     0   501     0  0.000000000E+00  0.000000000E+00  1.285297424E+03  1.285297424E+03  0.000000000E+00  0.00000E+00  9.000E+00
      -4    -1     0     0     0   502  0.000000000E+00  0.000000000E+00 -1.002138757E+01  1.002138757E+01  0.000000000E+00  0.00000E+00  9.000E+00
      23     2     1     2     0     0  4.429339774E+00 -8.726767970E+00  2.947744918E+02  3.087118849E+02  9.118800000E+01  0.00000E+00  9.000E+00
     -13     1     3     3     0     0 -2.054982998E+01  2.046457796E+01  3.217494063E+01  4.331665315E+01  1.057000000E-01  0.00000E+00  9.000E+00
      13     1     3     3     0     0  2.497916975E+01 -2.919134593E+01  2.625995512E+02  2.653952318E+02  1.057000000E-01  0.00000E+00  9.000E+00
       1     1     1     2   501     0 -5.786985602E+00 -3.266522239E+00  9.534750304E+02  9.534982443E+02  3.300000000E-01  0.00000E+00  9.000E+00
      -4     1     1     2     0   512 -1.154243727E+00 -5.977211802E-02  1.733968266E+01  1.744277633E+01  1.500000000E+00  0.00000E+00  9.000E+00
      21     1     1     2   512   502  2.511889555E+00  1.205306233E+01  9.686831123E+00  1.566590559E+01  2.907827119E-06  0.00000E+00  9.000E+00
</event>
<event>
      8  10001  1.08990E-02  1.78781E+02 -1.00000E+00  1.15444E-01
       2    -1     0     0   501     0  0.000000000E+00  0.000000000E+00  8.042235100E+02  8.042235100E+02  0.000000000E+00  0.00000E+00  9.000E+00
      -2    -1     0     0     0   502  0.000000000E+00  0.000000000E+00 -7.864214944E+01  7.864214944E+01  0.000000000E+00  0.00000E+00  9.000E+00
      23     2     1     2     0     0  3.508337963E+01 -1.608652262E+01  3.351225643E+00  9.907624233E+01  9.118800000E+01  0.00000E+00  9.000E+00
     -13     1     3     3     0     0  2.124300011E+01 -5.355445900E+01  1.031832335E+01  5.853053991E+01  1.057000000E-01  0.00000E+00  9.000E+00
      13     1     3     3     0     0  1.384037952E+01  3.746793638E+01 -6.967097708E+00  4.054570242E+01  1.057000000E-01  0.00000E+00  9.000E+00
       1     1     1     2   501     0 -6.418619643E+01  7.997046332E+01  1.732133670E+02  2.012911380E+02  3.300000000E-01  0.00000E+00  9.000E+00
      -1     1     1     2     0   511  5.889409639E+01 -9.913970528E+01  2.034062805E+02  2.338192028E+02  3.300000000E-01  0.00000E+00  9.000E+00
      21     1     1     2   511   502 -2.979127959E+01  3.525576458E+01  3.456104874E+02  3.486790763E+02  3.814697266E-06  0.00000E+00  9.000E+00
</event>
<event>
      8  10001  1.40841E-02  3.07749E+01 -1.00000E+00  1.55943E-01
       2    -1     0     0   501     0  0.000000000E+00  0.000000000E+00  7.837445743E+01  7.837445743E+01  0.000000000E+00  0.00000E+00  9.000E+00
       2    -1     0     0   502     0  0.000000000E+00  0.000000000E+00 -3.086160272E+02  3.086160272E+02  0.000000000E+00  0.00000E+00  9.000E+00
      23     2     1     2     0     0 -8.840071409E+00 -5.909498081E+01  2.344642119E+01  1.115138988E+02  9.118800000E+01  0.00000E+00  9.000E+00
     -13     1     3     3     0     0 -6.045509883E+00  2.247991095E+01 -7.138800755E+00  2.434888569E+01  1.057000000E-01  0.00000E+00  9.000E+00
      13     1     3     3     0     0 -2.794561526E+00 -8.157489176E+01  3.058522194E+01  8.716501313E+01  1.057000000E-01  0.00000E+00  9.000E+00
       2     1     1     2   501     0 -1.409288779E+01  4.916872211E+01 -1.118232714E+02  1.229663598E+02  3.300000000E-01  0.00000E+00  9.000E+00
       2     1     1     2   512     0  1.289283665E+00  1.794892438E+00 -1.220212292E+02  1.220416862E+02  3.300000000E-01  0.00000E+00  9.000E+00
      21     1     1     2   502   512  2.164367553E+01  8.131366269E+00 -1.984349035E+01  3.046853979E+01  6.307962682E-07  0.00000E+00  9.000E+00
</event>
<event>
      8  10001  1.77450E-01  7.85033E+01 -1.00000E+00  1.31336E-01
      -2    -1     0     0     0   501  0.000000000E+00  0.000000000E+00  1.547436662E+01  1.547436662E+01  0.000000000E+00  0.00000E+00  9.000E+00
      -3    -1     0     0     0   502  0.000000000E+00  0.000000000E+00 -4.328339170E+02  4.328339170E+02  0.000000000E+00  0.00000E+00  9.000E+00
      23     2     1     2     0     0  3.608447614E+00  2.064596555E+01 -2.289879140E+02  2.473661110E+02  9.118800000E+01  0.00000E+00  9.000E+00
     -13     1     3     3     0     0  4.100746297E+01  7.724896231E+00 -1.780010264E+02  1.828268652E+02  1.057000000E-01  0.00000E+00  9.000E+00
      13     1     3     3     0     0 -3.739901535E+01  1.292106932E+01 -5.098688754E+01  6.453924585E+01  1.057000000E-01  0.00000E+00  9.000E+00
      -2     1     1     2     0   501 -6.097409772E+00 -1.877057720E+00  2.239722761E+00  6.769564953E+00  3.300000000E-01  0.00000E+00  9.000E+00
      -3     1     1     2     0   511 -1.419078854E+00  3.275511773E+00 -1.782549454E+00  4.021224282E+00  5.000000000E-01  0.00000E+00  9.000E+00
      21     1     1     2   511   502  3.908041011E+00 -2.204441960E+01 -1.888288097E+02  1.901513834E+02  4.672030912E-06  0.00000E+00  9.000E+00
</event>
<event>
      8  10001  1.07006E-02  1.62899E+02 -1.00000E+00  1.17041E-01
       2    -1     0     0   501     0  0.000000000E+00  0.000000000E+00  7.338884869E+01  7.338884869E+01  0.000000000E+00  0.00000E+00  9.000E+00
       1    -1     0     0   502     0  0.000000000E+00  0.000000000E+00 -9.365413265E+02  9.365413265E+02  0.000000000E+00  0.00000E+00  9.000E+00
      23     2     1     2     0     0 -9.647530971E+01 -6.028184646E+01 -7.723488856E+01  1.649905020E+02  9.118800000E+01  0.00000E+00  9.000E+00
     -13     1     3     3     0     0 -4.400945676E+01  1.852061274E+01 -9.760639691E+00  4.873527101E+01  1.057000000E-01  0.00000E+00  9.000E+00
      13     1     3     3     0     0 -5.246585295E+01 -7.880245919E+01 -6.747424887E+01  1.162552310E+02  1.057000000E-01  0.00000E+00  9.000E+00
       2     1     1     2   501     0  4.246890437E+01  1.515313946E+02 -5.054115752E+02  5.293451998E+02  3.300000000E-01  0.00000E+00  9.000E+00
       1     1     1     2   512     0  1.314046440E+00  1.599462591E-01 -1.393864928E+02  1.393931690E+02  3.300000000E-01  0.00000E+00  9.000E+00
      21     1     1     2   502   512  5.269235890E+01 -9.140949439E+01 -1.411195214E+02  1.762013044E+02  2.697398305E-06  0.00000E+00  9.000E+00
</event>
<event>
      8  10001  3.23914E-02  2.18182E+01 -1.00000E+00  1.67556E-01
      -2    -1     0     0     0   501  0.000000000E+00  0.000000000E+00  4.637411669E+01  4.637411669E+01  0.000000000E+00  0.00000E+00  9.000E+00
      -2    -1     0     0     0   502  0.000000000E+00  0.000000000E+00 -1.942610903E+02  1.942610903E+02  0.000000000E+00  0.00000E+00  9.000E+00
      23     2     1     2     0     0  6.854780302E+01  5.814536774E+00 -6.504459630E+01  1.314483206E+02  9.118800000E+01  0.00000E+00  9.000E+00
     -13     1     3     3     0     0  8.401928507E+01 -1.196321681E+01 -3.165301781E+01  9.057750012E+01  1.057000000E-01  0.00000E+00  9.000E+00
      13     1     3     3     0     0 -1.547148205E+01  1.777775359E+01 -3.339157849E+01  4.087082047E+01  1.057000000E-01  0.00000E+00  9.000E+00
      -2     1     1     2     0   501 -5.861695782E+01 -5.588737781E+00 -7.066713873E+01  9.198442873E+01  3.300000000E-01  0.00000E+00  9.000E+00
      -2     1     1     2     0   511  1.037136008E+00 -4.269010275E-01 -9.416560317E-01  1.501170100E+00  3.300000000E-01  0.00000E+00  9.000E+00
      21     1     1     2   511   502 -1.096798121E+01  2.011020345E-01 -1.123358252E+01  1.570128753E+01  5.331201500E-07  0.00000E+00  9.000E+00
</event>
<event>
      8  10001  1.09843E-02  1.49254E+02 -1.00000E+00  1.18584E-01
       1    -1     0     0   501     0  0.000000000E+00  0.000000000E+00  6.831844310E+01  6.831844310E+01  0.000000000E+00  0.00000E+00  9.000E+00
       2    -1     0     0   502     0  0.000000000E+00  0.000000000E+00 -3.318311508E+02  3.318311508E+02  0.000000000E+00  0.00000E+00  9.000E+00
      23     2     1     2     0     0 -3.022493925E+01  2.500085024E+01 -7.051528335E+01  1.217630732E+02  9.118800000E+01  0.00000E+00  9.000E+00
     -13     1     3     3     0     0  2.171794930E+01 -1.291786185E+01  1.372829352E+00  2.530684314E+01  1.057000000E-01  0.00000E+00  9.000E+00
      13     1     3     3     0     0 -5.194288855E+01  3.791871209E+01 -7.188811270E+01  9.645623006E+01  1.057000000E-01  0.00000E+00  9.000E+00
       1     1     1     2   501     0  1.248908330E+00  7.811694477E+01 -6.580417318E+01  1.021475156E+02  3.300000000E-01  0.00000E+00  9.000E+00
       2     1     1     2   512     0 -5.470361853E-01 -7.235020501E-01 -3.590750235E+01  3.592047228E+01  3.300000000E-01  0.00000E+00  9.000E+00
      21     1     1     2   502   512  2.952306711E+01 -1.023942930E+02 -9.128574886E+01  1.403185329E+02  1.907348633E-06  0.00000E+00  9.000E+00
</event>
<event>
      8  10001  1.34366E-02  2.52915E+02 -1.00000E+00  1.09862E-01
      -2    -1     0     0     0   501  0.000000000E+00  0.000000000E+00  2.911307663E+02  2.911307663E+02  0.000000000E+00  0.00000E+00  9.000E+00
       2    -1     0     0   502     0  0.000000000E+00  0.000000000E+00 -6.704522357E+02  6.704522357E+02  0.000000000E+00  0.00000E+00  9.000E+00
      23     2     1     2     0     0  7.759119274E+00  1.256271394E+01  2.699766064E+02  2.853430305E+02  9.118800000E+01  0.00000E+00  9.000E+00
     -13     1     3     3     0     0 -2.877375555E+01  3.472130528E+01  1.825028164E+02  1.879914552E+02  1.057000000E-01  0.00000E+00  9.000E+00
      13     1     3     3     0     0  3.653287483E+01 -2.215859134E+01  8.747379005E+01  9.735157539E+01  1.057000000E-01  0.00000E+00  9.000E+00
      -1     1     1     2     0   511 -6.406122445E+01 -3.012116915E+01 -1.161942767E+02  1.360600755E+02  3.300000000E-01  0.00000E+00  9.000E+00
       1     1     1     2   502     0  3.212695921E+01  1.135912669E+01 -8.786116845E+01  9.423834192E+01  3.300000000E-01  0.00000E+00  9.000E+00
      21     1     1     2   511   501  2.417514596E+01  6.199328509E+00 -4.452426307E+02  4.459415539E+02  1.525878906E-05  0.00000E+00  9.000E+00
</event>
<event>
      8  10001  1.51380E-02  3.16304E+02 -1.00000E+00  1.06546E-01
      -1    -1     0     0     0   501  0.000000000E+00  0.000000000E+00  2.418372946E+02  2.418372946E+02  0.000000000E+00  0.00000E+00  9.000E+00
      -2    -1     0     0     0   502  0.000000000E+00  0.000000000E+00 -2.794941739E+02  2.794941739E+02  0.000000000E+00  0.00000E+00  9.000E+00
      23     2     1     2     0     0  7.534993320E+01  8.293846096E+01 -1.060860316E+02  1.792369889E+02  9.118800000E+01  0.00000E+00  9.000E+00
     -13     1     3     3     0     0  9.449670620E+01  6.568256496E+01 -6.935682764E+01  1.343659463E+02  1.057000000E-01  0.00000E+00  9.000E+00
      13     1     3     3     0     0 -1.914677300E+01  1.725589600E+01 -3.672920395E+01  4.487104254E+01  1.057000000E-01  0.00000E+00  9.000E+00
      -1     1     1     2     0   501 -1.620121420E+00 -2.747341094E+01 -4.995718874E+01  5.703720460E+01  3.300000000E-01  0.00000E+00  9.000E+00
      -2     1     1     2     0   511 -9.510869877E+01 -3.067446308E+01 -5.123778355E+01  1.123031907E+02  3.300000000E-01  0.00000E+00  9.000E+00
      21     1     1     2   511   502  2.137888699E+01 -2.479058694E+01  1.696241246E+02  1.727540844E+02  0.000000000E+00  0.00000E+00  9.000E+00
</event>
<event>
      8  10001  1.38546E-02  1.20425E+02 -1.00000E+00  1.22553E-01
      -2    -1     0     0     0   501  0.000000000E+00  0.000000000E+00  3.628536887E+01  3.628536887E+01  0.000000000E+00  0.00000E+00  9.000E+00
      -2    -1     0     0     0   502  0.000000000E+00  0.000000000E+00 -8.934475767E+02  8.934475767E+02  0.000000000E+00  0.00000E+00  9.000E+00
      23     2     1     2     0     0  3.727732508E+01 -2.308194195E+01 -1.126526422E+02  1.514207520E+02  9.118800000E+01  0.00000E+00  9.000E+00
     -13     1     3     3     0     0  2.547277056E+01 -5.390033497E+01 -4.048018515E+01  7.206084034E+01  1.057000000E-01  0.00000E+00  9.000E+00
      13     1     3     3     0     0  1.180455453E+01  3.081839302E+01 -7.217245701E+01  7.935991166E+01  1.057000000E-01  0.00000E+00  9.000E+00
      -2     1     1     2     0   512  9.836140711E+00  7.651740766E+00 -4.999247291E+01  5.152334469E+01  3.300000000E-01  0.00000E+00  9.000E+00
      -2     1     1     2     0   502 -5.876467360E+01  1.151669148E+01 -7.068471087E+02  7.093792110E+02  3.300000000E-01  0.00000E+00  9.000E+00
      21     1     1     2   512   501  1.165120780E+01  3.913509703E+00  1.233001586E+01  1.740963792E+01  1.410503336E-06  0.00000E+00  9.000E+00
</event>
<event>
      8  10001  1.18526E-02  1.02595E+02 -1.00000E+00  1.25698E-01
       2    -1     0     0   501     0  0.000000000E+00  0.000000000E+00  2.344635748E+03  2.344635748E+03  0.000000000E+00  0.00000E+00  9.000E+00
      -2    -1     0     0     0   502  0.000000000E+00  0.000000000E+00 -1.533178372E+01  1.533178372E+01  0.000000000E+00  0.00000E+00  9.000E+00
      23     2     1     2     0     0  9.320744001E+00 -1.184318401E+01  1.051506975E+03  1.055561134E+03  9.118800000E+01  0.00000E+00  9.000E+00
     -13     1     3     3     0     0 -3.819763742E+01  4.911081546E+00  6.040057799E+02  6.052323286E+02  1.057000000E-01  0.00000E+00  9.000E+00
      13     1     3     3     0     0  4.751838142E+01 -1.675426555E+01  4.475011954E+02  4.503288054E+02  1.057000000E-01  0.00000E+00  9.000E+00
       2     1     1     2   511     0  2.380867326E+01 -1.531914527E+01  1.894620966E+02  1.915659784E+02  3.300000000E-01  0.00000E+00  9.000E+00
      -2     1     1     2     0   502 -3.721679024E+01  4.833000422E+01  6.449180859E+01  8.877038391E+01  3.300000000E-01  0.00000E+00  9.000E+00
      21     1     1     2   501   511  4.087372981E+00 -2.116767495E+01  1.023843084E+03  1.024070036E+03  0.000000000E+00  0.00000E+00  9.000E+00
</event>
<event>
      8  10001  1.44921E-02  1.06554E+02 -1.00000E+00  1.24940E-01
      -4    -1     0     0     0   501  0.000000000E+00  0.000000000E+00  1.347452489E+02  1.347452489E+02  0.000000000E+00  0.00000E+00  9.000E+00
      -2    -1     0     0     0   502  0.000000000E+00  0.000000000E+00 -1.129585410E+02  1.129585410E+02  0.000000000E+00  0.00000E+00  9.000E+00
      23     2     1     2     0     0 -5.349207950E+01 -5.872283133E+01  7.417773709E+01  1.418709326E+02  9.118800000E+01  0.00000E+00  9.000E+00
     -13     1     3     3     0     0 -3.330059528E+01  4.181084298E+00 -9.853840154E+00  3.497885719E+01  1.057000000E-01  0.00000E+00  9.000E+00
      13     1     3     3     0     0 -2.019148422E+01 -6.290391563E+01  8.403157724E+01  1.068920754E+02  1.057000000E-01  0.00000E+00  9.000E+00
      -4     1     1     2     0   511  1.353229239E+00  1.178347302E+00  7.312609325E+00  7.677498738E+00  1.500000000E+00  0.00000E+00  9.000E+00
      -2     1     1     2     0   502  1.887157419E+01  2.072182447E+01 -2.542275464E+01  3.784119019E+01  3.300000000E-01  0.00000E+00  9.000E+00
      21     1     1     2   511   501  3.326727607E+01  3.682265956E+01 -3.428088381E+01  6.031416839E+01  2.477718555E-06  0.00000E+00  9.000E+00
</event>
<event>
      8  10001  1.07574E-02  1.63186E+02 -1.00000E+00  1.17010E-01
       4    -1     0     0   501     0  0.000000000E+00  0.000000000E+00  2.876924073E+01  2.876924073E+01  0.000000000E+00  0.00000E+00  9.000E+00
       2    -1     0     0   502     0  0.000000000E+00  0.000000000E+00 -2.894795792E+03  2.894795792E+03  0.000000000E+00  0.00000E+00  9.000E+00
      23     2     1     2     0     0  8.096269471E+01  1.652624263E+02 -4.879581615E+02  5.294195370E+02  9.118800000E+01  0.00000E+00  9.000E+00
     -13     1     3     3     0     0  9.750772494E+01  1.323258693E+02 -3.508759916E+02  3.874685339E+02  1.057000000E-01  0.00000E+00  9.000E+00
      13     1     3     3     0     0 -1.654503024E+01  3.293655693E+01 -1.370821699E+02  1.419510031E+02  1.057000000E-01  0.00000E+00  9.000E+00
       4     1     1     2   501     0  2.809764344E+01 -1.506376208E+02 -1.593399281E+03  1.600751289E+03  1.500000000E+00  0.00000E+00  9.000E+00
       2     1     1     2   511     0  1.572215282E+00  1.318229456E+00 -7.053016196E+01  7.056076981E+01  3.300000000E-01  0.00000E+00  9.000E+00
      21     1     1     2   502   511 -1.106325534E+02 -1.594303494E+01 -7.141389476E+02  7.228334378E+02  2.018548058E-05  0.00000E+00  9.000E+00
</event>
<event>
      8  10001  1.06348E-02  1.95822E+02 -1.00000E+00  1.13924E-01
      -2    -1     0     0     0   501  0.000000000E+00  0.000000000E+00  2.614828001E+01  2.614828001E+01  0.000000000E+00  0.00000E+00  9.000E+00
       1    -1     0     0   502     0  0.000000000E+00  0.000000000E+00 -2.832680224E+03  2.832680224E+03  0.000000000E+00  0.00000E+00  9.000E+00
      23     2     1     2     0     0 -2.205707842E+00  5.573261594E-01 -2.476222465E+02  2.638886206E+02  9.118800000E+01  0.00000E+00  9.000E+00
     -13     1     3     3     0     0 -3.217619263E+01  3.345622649E+01 -1.369947966E+02  1.446451242E+02  1.057000000E-01  0.00000E+00  9.000E+00
      13     1     3     3     0     0  2.997048479E+01 -3.289890033E+01 -1.106274499E+02  1.192434964E+02  1.057000000E-01  0.00000E+00  9.000E+00
      -2     1     1     2     0   501 -1.792514200E+02  1.137091029E+01 -5.807752785E+02  6.079147984E+02  3.300000000E-01  0.00000E+00  9.000E+00
       1     1     1     2   512     0  4.848758953E-01 -1.624795679E-01 -1.326301584E+02  1.326315547E+02  3.300000000E-01  0.00000E+00  9.000E+00
      21     1     1     2   502   512  1.809722519E+02 -1.176575688E+01 -1.845504260E+03  1.854393530E+03  0.000000000E+00  0.00000E+00  9.000E+00
</event>
<event>
      8  10001  1.70078E-02  9.31627E+01 -1.00000E+00  1.27672E-01
       2    -1     0     0   501     0  0.000000000E+00  0.000000000E+00  1.267709918E+03  1.267709918E+03  0.000000000E+00  0.00000E+00  9.000E+00
      -1    -1     0     0     0   502  0.000000000E+00  0.000000000E+00 -1.261194539E+01  1.261194539E+01  0.000000000E+00  0.00000E+00  9.000E+00
      23     2     1     2     0     0 -1.279436585E+01 -6.946175249E+00  5.389829660E+02  5.468362041E+02  9.118800000E+01  0.00000E+00  9.000E+00
     -13     1     3     3     0     0  5.979809589E+00  4.059719906E+01  2.576215152E+02  2.608692143E+02  1.057000000E-01  0.00000E+00  9.000E+00
      13     1     3     3     0     0 -1.877417544E+01 -4.754337431E+01  2.813614508E+02  2.859669898E+02  1.057000000E-01  0.00000E+00  9.000E+00
       2     1     1     2   501     0  2.293415767E+01  6.834205899E+00  2.572581839E+02  2.583690462E+02  3.300000000E-01  0.00000E+00  9.000E+00
      -1     1     1     2     0   511 -3.535953209E+00 -1.719449131E+00 -7.624501819E+00  8.584951858E+00  3.300000000E-01  0.00000E+00  9.000E+00
      21     1     1     2   511   502 -6.603838612E+00  1.831418480E+00  4.664813243E+02  4.665316610E+02  5.394796609E-06  0.00000E+00  9.000E+00
</event>
<event>
      8  10001  1.08004E-02  3.97602E+02 -1.00000E+00  1.03358E-01
       2    -1     0     0   501     0  0.000000000E+00  0.000000000E+00  7.561603698E+01  7.561603698E+01  0.000000000E+00  0.00000E+00  9.000E+00
       2    -1     0     0   502     0  0.000000000E+00  0.000000000E+00 -1.325250479E+03  1.325250479E+03  0.000000000E+00  0.00000E+00  9.000E+00
      23     2     1     2     0     0 -6.839221907E+01  2.607063514E+01 -2.400935211E+02  2.670530357E+02  9.118800000E+01  0.00000E+00  9.000E+00
     -13     1     3     3     0     0 -4.883630446E+01  5.853909273E+01 -1.858575971E+02  2.008852099E+02  1.057000000E-01  0.00000E+00  9.000E+00
      13     1     3     3     0     0 -1.955591461E+01 -3.246845759E+01 -5.423592403E+01  6.616782574E+01  1.057000000E-01  0.00000E+00  9.000E+00
       2     1     1     2   501     0 -7.483458537E+01  4.957278202E+01 -8.787949597E+02  8.833676279E+02  3.300000000E-01  0.00000E+00  9.000E+00
       2     1     1     2   512     0  2.275078362E+01 -1.063939279E+01 -1.089739338E+02  1.118312210E+02  3.300000000E-01  0.00000E+00  9.000E+00
      21     1     1     2   502   512  1.204760208E+02 -6.500402437E+01 -2.177202698E+01  1.386146310E+02  3.216442481E-06  0.00000E+00  9.000E+00
</event>
<event>
      8  10001  1.05769E-02  4.07858E+02 -1.00000E+00  1.03015E-01
       1    -1     0     0   501     0  0.000000000E+00  0.000000000E+00  1.841469058E+02  1.841469058E+02  0.000000000E+00  0.00000E+00  9.000E+00
       2    -1     0     0   502     0  0.000000000E+00  0.000000000E+00 -2.724065825E+03  2.724065825E+03  0.000000000E+00  0.00000E+00  9.000E+00
      23     2     1     2     0     0 -1.337660307E+02 -4.002177297E+02 -2.900972469E+02  5.201338733E+02  9.118800000E+01  0.00000E+00  9.000E+00
     -13     1     3     3     0     0 -8.231177022E+01 -2.139685988E+02 -2.102252655E+02  3.110505782E+02  1.057000000E-01  0.00000E+00  9.000E+00
      13     1     3     3     0     0 -5.145426044E+01 -1.862491309E+02 -7.987198140E+01  2.090832950E+02  1.057000000E-01  0.00000E+00  9.000E+00
       2     1     1     2   511     0  1.263349147E+01 -7.263357045E+01 -2.986824634E+01  7.954534369E+01  3.300000000E-01  0.00000E+00  9.000E+00
       1     1     1     2   502     0  7.852898424E+01  4.901226928E+02 -1.366795373E+03  1.454137805E+03  3.300000000E-01  0.00000E+00  9.000E+00
      21     1     1     2   501   511  4.260355495E+01 -1.727139268E+01 -8.531580539E+02  8.543957097E+02  2.642899792E-05  0.00000E+00  9.000E+00
</event>
<event>
      8  10001  1.07074E-02  4.12911E+02 -1.00000E+00  1.02850E-01
       2    -1     0     0   501     0  0.000000000E+00  0.000000000E+00  1.866305837E+03  1.866305837E+03  0.000000000E+00  0.00000E+00  9.000E+00
       3    -1     0     0   502     0  0.000000000E+00  0.000000000E+00 -3.833296178E+01  3.833296178E+01  0.000000000E+00  0.00000E+00  9.000E+00
      23     2     1     2     0     0  3.333653480E+01  6.909894338E+01  3.188814964E+02  3.404212811E+02  9.118800000E+01  0.00000E+00  9.000E+00
     -13     1     3     3     0     0  6.283217486E+01  4.423159276E+01  1.689003912E+02  1.855577250E+02  1.057000000E-01  0.00000E+00  9.000E+00
      13     1     3     3     0     0 -2.949564005E+01  2.486735061E+01  1.499811052E+02  1.548635560E+02  1.057000000E-01  0.00000E+00  9.000E+00
       1     1     1     2   511     0 -6.144666482E+00  3.558425454E+01  2.403841841E+02  2.430815932E+02  3.300000000E-01  0.00000E+00  9.000E+00
       4     1     1     2   502     0 -9.098357574E+01  5.186653503E+01  9.874205583E+02  9.929600986E+02  1.500000000E+00  0.00000E+00  9.000E+00
      21     1     1     2   501   511  6.379170742E+01 -1.565497329E+02  2.812866363E+02  3.281758257E+02  1.907348633E-05  0.00000E+00  9.000E+00
</event>
<event>
      8  10001  1.06115E-02  5.62345E+02 -1.00000E+00  9.88814E-02
       2    -1     0     0   501     0  0.000000000E+00  0.000000000E+00  7.118512007E+02  7.118512007E+02  0.000000000E+00  0.00000E+00  9.000E+00
       1    -1     0     0   502     0  0.000000000E+00  0.000000000E+00 -4.111146565E+02  4.111146565E+02  0.000000000E+00  0.00000E+00  9.000E+00
      23     2     1     2     0     0 -1.381010531E-01  3.410135751E+02  1.037325121E+02  3.679211368E+02  9.118800000E+01  0.00000E+00  9.000E+00
     -13     1     3     3     0     0 -1.062226029E+01  4.587027185E+01  4.826633340E+01  6.742821639E+01  1.057000000E-01  0.00000E+00  9.000E+00
      13     1     3     3     0     0  1.048415923E+01  2.951433033E+02  5.546617873E+01  3.004929204E+02  1.057000000E-01  0.00000E+00  9.000E+00
       1     1     1     2   501     0 -1.246136924E+02 -2.871826086E+02 -1.372885679E+02  3.418342915E+02  3.300000000E-01  0.00000E+00  9.000E+00
       2     1     1     2   511     0  1.040613992E+01  6.721855782E+00 -2.685909319E+01  2.958024476E+01  3.300000000E-01  0.00000E+00  9.000E+00
      21     1     1     2   502   511  1.143456536E+02 -6.055282231E+01  3.611516931E+02  3.836301842E+02  5.394796609E-06  0.00000E+00  9.000E+00
</event>
<event>
      8  10001  1.17671E-02  4.29674E+02 -1.00000E+00  1.02321E-01
       2    -1     0     0   501     0  0.000000000E+00  0.000000000E+00  2.441465843E+02  2.441465843E+02  0.000000000E+00  0.00000E+00  9.000E+00
       4    -1     0     0   502     0  0.000000000E+00  0.000000000E+00 -3.587433998E+02  3.587433998E+02  0.000000000E+00  0.00000E+00  9.000E+00
      23     2     1     2     0     0 -3.372495639E+01  5.503760890E+01  1.600691130E+01  1.128626760E+02  9.118800000E+01  0.00000E+00  9.000E+00
     -13     1     3     3     0     0 -1.661301605E+01  6.724491967E+01  4.077505152E+01  8.037715797E+01  1.057000000E-01  0.00000E+00  9.000E+00
      13     1     3     3     0     0 -1.711194034E+01 -1.220731077E+01 -2.476814022E+01  3.248551802E+01  1.057000000E-01  0.00000E+00  9.000E+00
       2     1     1     2   501     0  2.268731327E+01  2.577623651E+00 -3.294993751E+01  4.008947005E+01  3.300000000E-01  0.00000E+00  9.000E+00
       4     1     1     2   512     0 -7.748401441E+00 -6.711105336E+00 -2.695152799E+02  2.697143169E+02  1.500000000E+00  0.00000E+00  9.000E+00
      21     1     1     2   502   512  1.878604456E+01 -5.090412721E+01  1.718614906E+02  1.802235212E+02  5.046370146E-06  0.00000E+00  9.000E+00
</event>
<event>
      8  10001  1.24063E-02  4.04276E+02 -1.00000E+00  1.03134E-01
      21    -1     0     0   501   511  0.000000000E+00  0.000000000E+00  7.569102163E+02  7.569102163E+02  0.000000000E+00  0.00000E+00  9.000E+00
       2    -1     0     0   502     0  0.000000000E+00  0.000000000E+00 -1.607702394E+03  1.607702394E+03  0.000000000E+00  0.00000E+00  9.000E+00
      23     2     1     2     0     0  5.615027946E+01  1.361061741E+02  2.380611132E+02  2.943910486E+02  9.118800000E+01  0.00000E+00  9.000E+00
     -13     1     3     3     0     0  4.335078574E+01  1.360993357E+02  2.419907235E+02  2.810014969E+02  1.057000000E-01  0.00000E+00  9.000E+00
      13     1     3     3     0     0  1.279949371E+01  6.838469087E-03 -3.929610301E+00  1.338955174E+01  1.057000000E-01  0.00000E+00  9.000E+00
       4     1     1     2   501     0 -4.252351261E+02 -2.084400990E+02 -1.428048103E+03  1.504525115E+03  1.500000000E+00  0.00000E+00  9.000E+00
       2     1     1     2   502     0 -3.290115438E+01  2.937326783E+01  1.229344468E+01  4.578768944E+01  3.300000000E-01  0.00000E+00  9.000E+00
      -4     1     1     2     0   511  4.019860010E+02  4.296065706E+01  3.269013667E+02  5.199087580E+02  1.500000000E+00  0.00000E+00  9.000E+00
</event>
<event>
      8  10001  1.06045E-02  3.74105E+02 -1.00000E+00  1.04188E-01
       1    -1     0     0   501     0  0.000000000E+00  0.000000000E+00  1.521860587E+03  1.521860587E+03  0.000000000E+00  0.00000E+00  9.000E+00
      -3    -1     0     0     0   502  0.000000000E+00  0.000000000E+00 -5.691957145E+01  5.691957145E+01  0.000000000E+00  0.00000E+00  9.000E+00
      23     2     1     2     0     0 -1.340607842E+01 -2.711073705E+01  5.133207496E+02  5.222338158E+02  9.118800000E+01  0.00000E+00  9.000E+00
     -13     1     3     3     0     0  2.935771759E+01 -3.071292659E+01  1.360461557E+02  1.425262330E+02  1.057000000E-01  0.00000E+00  9.000E+00
      13     1     3     3     0     0 -4.276379601E+01  3.602189545E+00  3.772745939E+02  3.797075828E+02  1.057000000E-01  0.00000E+00  9.000E+00
       2     1     1     2   501     0  1.925371409E+01 -1.238195360E+02  1.880915190E+02  2.260099808E+02  3.300000000E-01  0.00000E+00  9.000E+00
      -4     1     1     2     0   511  4.517460299E+01 -2.429247935E+01  6.386424166E+00  5.170982230E+01  1.500000000E+00  0.00000E+00  9.000E+00
      21     1     1     2   511   502 -5.102223866E+01  1.752227524E+02  7.571423231E+02  7.788265399E+02  1.078959322E-05  0.00000E+00  9.000E+00
</event>
<event>
      8  10001  1.05505E-02  1.34028E+03 -1.00000E+00  8.92234E-02
       2    -1     0     0   501     0  0.000000000E+00  0.000000000E+00  6.928553035E+02  6.928553035E+02  0.000000000E+00  0.00000E+00  9.000E+00
       1    -1     0     0   502     0  0.000000000E+00  0.000000000E+00 -1.242802816E+03  1.242802816E+03  0.000000000E+00  0.00000E+00  9.000E+00
      23     2     1     2     0     0  2.905543552E+02 -1.528439746E+02 -1.417055804E+02  3.690241683E+02  9.118800000E+01  0.00000E+00  9.000E+00
     -13     1     3     3     0     0  5.582154606E+01  7.005965784E+00 -3.085000752E+01  6.416278281E+01  1.057000000E-01  0.00000E+00  9.000E+00
      13     1     3     3     0     0  2.347328092E+02 -1.598499404E+02 -1.108555729E+02  3.048613855E+02  1.057000000E-01  0.00000E+00  9.000E+00
       1     1     1     2   512     0 -4.243756031E+01 -4.383568606E+02  2.633129563E+02  5.131193872E+02  3.300000000E-01  0.00000E+00  9.000E+00
       2     1     1     2   502     0 -6.160561930E+01  1.739068301E+02  5.730448254E+01  1.931909690E+02  3.300000000E-01  0.00000E+00  9.000E+00
      21     1     1     2   501   512 -1.865111756E+02  4.172940051E+02 -7.288593706E+02  8.603235946E+02  1.868812365E-05  0.00000E+00  9.000E+00
</event>
<event>
      8  10001  1.57205E-02  3.87946E+01 -1.00000E+00  1.49014E-01
       4    -1     0     0   501     0  0.000000000E+00  0.000000000E+00  2.179998532E+01  2.179998532E+01  0.000000000E+00  0.00000E+00  9.000E+00
       2    -1     0     0   502     0  0.000000000E+00  0.000000000E+00 -7.092469706E+02  7.092469706E+02  0.000000000E+00  0.00000E+00  9.000E+00
      23     2     1     2     0     0  4.294431315E-03 -2.797030989E+00 -9.577135242E+01  1.322695229E+02  9.118800000E+01  0.00000E+00  9.000E+00
     -13     1     3     3     0     0 -5.816132990E+00 -3.957434242E+01 -8.429827497E+01  9.330683960E+01  1.057000000E-01  0.00000E+00  9.000E+00
      13     1     3     3     0     0  5.820427422E+00  3.677731143E+01 -1.147307744E+01  3.896268330E+01  1.057000000E-01  0.00000E+00  9.000E+00
       4     1     1     2   501     0 -1.109044760E+01  1.337885651E+01 -4.672047324E+02  4.675302170E+02  1.500000000E+00  0.00000E+00  9.000E+00
       2     1     1     2   511     0 -1.940514203E+00 -7.777901867E+00 -1.140483161E+02  1.143301738E+02  3.300000000E-01  0.00000E+00  9.000E+00
      21     1     1     2   502   511  1.302666737E+01 -2.803923656E+00 -1.042258440E+01  1.691704218E+01  3.769728732E-07  0.00000E+00  9.000E+00
</event>
<event>
      8  10001  1.33607E-02  1.08159E+02 -1.00000E+00  1.24643E-01
       1    -1     0     0   501     0  0.000000000E+00  0.000000000E+00  1.185639207E+03  1.185639207E+03  0.000000000E+00  0.00000E+00  9.000E+00
       2    -1     0     0   502     0  0.000000000E+00  0.000000000E+00 -9.134718235E+01  9.134718235E+01  0.000000000E+00  0.00000E+00  9.000E+00
      23     2     1     2     0     0  9.060122595E+01 -1.445667044E+02  3.612100565E+01  1.967945440E+02  9.118800000E+01  0.00000E+00  9.000E+00
     -13     1     3     3     0     0  6.183481213E+01 -6.032273798E+01  5.933202291E+01  1.047982673E+02  1.057000000E-01  0.00000E+00  9.000E+00
      13     1     3     3     0     0  2.876641382E+01 -8.424396641E+01 -2.321101725E+01  9.199627675E+01  1.057000000E-01  0.00000E+00  9.000E+00
       2     1     1     2   501     0 -9.535748301E+01  1.250146960E+02  8.479148011E+02  8.623696090E+02  3.300000000E-01  0.00000E+00  9.000E+00
       1     1     1     2   512     0 -1.061558503E+01 -8.890210028E+00  1.722779594E+01  2.210502958E+01  3.300000000E-01  0.00000E+00  9.000E+00
      21     1     1     2   502   512  1.537184209E+01  2.844221842E+01  1.930284219E+02  1.957172067E+02  4.672030912E-06  0.00000E+00  9.000E+00
</event>
<event>
      8  10001  1.10634E-02  2.79606E+02 -1.00000E+00  1.08349E-01
       1    -1     0     0   501     0  0.000000000E+00  0.000000000E+00  8.024712843E+02  8.024712843E+02  0.000000000E+00  0.00000E+00  9.000E+00
      -1    -1     0     0     0   502  0.000000000E+00  0.000000000E+00 -8.447702669E+01  8.447702669E+01  0.000000000E+00  0.00000E+00  9.000E+00
      23     2     1     2     0     0  1.558414563E+02 -5.855264246E+01  2.138719644E+02  2.859570596E+02  9.118800000E+01  0.00000E+00  9.000E+00
     -13     1     3     3     0     0  7.268206325E+01 -7.432996474E+01  1.338072667E+02  1.694462209E+02  1.057000000E-01  0.00000E+00  9.000E+00
      13     1     3     3     0     0  8.315939306E+01  1.577732228E+01  8.006469770E+01  1.165108387E+02  1.057000000E-01  0.00000E+00  9.000E+00
       2     1     1     2   511     0  3.536710761E+01 -2.935794862E+01  2.029007052E+02  2.080421268E+02  3.300000000E-01  0.00000E+00  9.000E+00
      -2     1     1     2     0   502 -9.148717485E+01  3.428707715E+01  2.505069613E+02  2.688853908E+02  3.300000000E-01  0.00000E+00  9.000E+00
      21     1     1     2   501   511 -9.972138907E+01  5.362351392E+01  5.071462676E+01  1.240637338E+02  7.569555219E-06  0.00000E+00  9.000E+00
</event>
<event>
      8  10001  1.12868E-02  1.65852E+02 -1.00000E+00  1.16729E-01
       4    -1     0     0   501     0  0.000000000E+00  0.000000000E+00  5.954706165E+01  5.954706165E+01  0.000000000E+00  0.00000E+00  9.000E+00
       1    -1     0     0   502     0  0.000000000E+00  0.000000000E+00 -1.287898015E+03  1.287898015E+03  0.000000000E+00  0.00000E+00  9.000E+00
      23     2     1     2     0     0 -1.039852917E+02  1.780281563E+00 -7.700777508E+01  1.583084302E+02  9.118800000E+01  0.00000E+00  9.000E+00
     -13     1     3     3     0     0 -2.675327000E+01  2.794010472E+01 -6.534470879E+01  7.593634866E+01  1.057000000E-01  0.00000E+00  9.000E+00
      13     1     3     3     0     0 -7.723202170E+01 -2.615982315E+01 -1.166306628E+01  8.237208151E+01  1.057000000E-01  0.00000E+00  9.000E+00
       4     1     1     2   511     0 -1.799489746E+01 -3.200747111E+01 -1.208056365E+02  1.262717164E+02  1.500000000E+00  0.00000E+00  9.000E+00
       1     1     1     2   502     0  1.380553525E+02  3.849296331E+01 -3.038775324E+02  3.359801366E+02  3.300000000E-01  0.00000E+00  9.000E+00
      21     1     1     2   501   511 -1.607516333E+01 -8.265773766E+00 -7.266600093E+02  7.268847934E+02  1.868812365E-05  0.00000E+00  9.000E+00
</event>
<event>
      8  10001  1.20226E-02  6.20807E+01 -1.00000E+00  1.36725E-01
       2    -1     0     0   501     0  0.000000000E+00  0.000000000E+00  1.134904561E+03  1.134904561E+03  0.000000000E+00  0.00000E+00  9.000E+00
       3    -1     0     0   502     0  0.000000000E+00  0.000000000E+00 -4.468816767E+01  4.468816767E+01  0.000000000E+00  0.00000E+00  9.000E+00
      23     2     1     2     0     0 -2.033979011E+02  1.209129004E+01  6.129625246E+02  6.523459308E+02  9.118800000E+01  0.00000E+00  9.000E+00
     -13     1     3     3     0     0 -4.430660657E+01  1.691863225E+00  4.811452547E+01  6.542901895E+01  1.057000000E-01  0.00000E+00  9.000E+00
      13     1     3     3     0     0 -1.590912946E+02  1.039942681E+01  5.648479992E+02  5.869169119E+02  1.057000000E-01  0.00000E+00  9.000E+00
       1     1     1     2   511     0 -8.000910053E+00 -4.661335130E+00  9.362516533E+00  1.317225200E+01  3.300000000E-01  0.00000E+00  9.000E+00
       4     1     1     2   502     0  1.765026295E+02 -4.566481465E+00  4.102322658E+02  4.466170540E+02  1.500000000E+00  0.00000E+00  9.000E+00
      21     1     1     2   501   511  3.489618173E+01 -2.863473441E+00  5.765908638E+01  6.745749196E+01  1.507891493E-06  0.00000E+00  9.000E+00
</event>
<event>
      8  10001  1.10532E-02  8.83866E+01 -1.00000E+00  1.28776E-01
      21    -1     0     0   501   511  0.000000000E+00  0.000000000E+00  2.114245065E+02  2.114245065E+02  0.000000000E+00  0.00000E+00  9.000E+00
      -2    -1     0     0     0   502  0.000000000E+00  0.000000000E+00 -3.083183680E+02  3.083183680E+02  0.000000000E+00  0.00000E+00  9.000E+00
      23     2     1     2     0     0 -1.376447044E+02  1.835313538E+02 -5.945238016E+01  2.539284532E+02  9.118800000E+01  0.00000E+00  9.000E+00
     -13     1     3     3     0     0 -1.265684259E+02  1.736285973E+02 -7.939156721E+01  2.290621932E+02  1.057000000E-01  0.00000E+00  9.000E+00
      13     1     3     3     0     0 -1.107627843E+01  9.902756479E+00  1.993918705E+01  2.486625992E+01  1.057000000E-01  0.00000E+00  9.000E+00
       3     1     1     2   501     0  5.624260683E+01 -5.808030149E+01  4.253638557E+01  9.135724570E+01  5.000000000E-01  0.00000E+00  9.000E+00
      -2     1     1     2     0   502  3.077886789E+01 -5.299857590E+01 -5.564693986E+01  8.278211504E+01  3.300000000E-01  0.00000E+00  9.000E+00
      -3     1     1     2     0   511  5.062322966E+01 -7.245247641E+01 -2.433092700E+01  9.167506055E+01  5.000000000E-01  0.00000E+00  9.000E+00
</event>
<event>
      8  10001  2.19868E-02  5.62107E+01 -1.00000E+00  1.39145E-01
      -3    -1     0     0     0   501  0.000000000E+00  0.000000000E+00  1.543993398E+02  1.543993398E+02  0.000000000E+00  0.00000E+00  9.000E+00
       1    -1     0     0   502     0  0.000000000E+00  0.000000000E+00 -5.124958615E+01  5.124958615E+01  0.000000000E+00  0.00000E+00  9.000E+00
      23     2     1     2     0     0  2.512727977E+01  1.382787441E+01  9.273395596E+01  1.331819366E+02  9.118800000E+01  0.00000E+00  9.000E+00
     -13     1     3     3     0     0  4.721821822E+01  2.628084992E+01  9.329582390E+01  1.078163491E+02  1.057000000E-01  0.00000E+00  9.000E+00
      13     1     3     3     0     0 -2.209093844E+01 -1.245297550E+01 -5.618679401E-01  2.536558748E+01  1.057000000E-01  0.00000E+00  9.000E+00
      -4     1     1     2     0   511 -2.582799637E+00  2.405606184E+01  1.292241419E+01  2.747005194E+01  1.500000000E+00  0.00000E+00  9.000E+00
       2     1     1     2   502     0 -1.202935873E+01 -1.649504481E+01  2.714818303E+00  2.059784244E+01  3.300000000E-01  0.00000E+00  9.000E+00
      21     1     1     2   511   501 -1.051512141E+01 -2.138889144E+01 -5.221434791E+00  2.439909499E+01  3.908537939E-07  0.00000E+00  9.000E+00
</event>
<event>
      8  10001  1.66843E-02  2.76061E+02 -1.00000E+00  1.08539E-01
       2    -1     0     0   501     0  0.000000000E+00  0.000000000E+00  2.008771565E+02  2.008771565E+02  0.000000000E+00  0.00000E+00  9.000E+00
      -1    -1     0     0     0   502  0.000000000E+00  0.000000000E+00 -1.795994362E+02  1.795994362E+02  0.000000000E+00  0.00000E+00  9.000E+00
      23     2     1     2     0     0  3.991933388E+00 -3.084877726E+01  1.645734550E+02  1.907020085E+02  9.118800000E+01  0.00000E+00  9.000E+00
     -13     1     3     3     0     0  3.756082995E+01  1.245375449E+01  5.054184368E+01  6.419035039E+01  1.057000000E-01  0.00000E+00  9.000E+00
      13     1     3     3     0     0 -3.356889656E+01 -4.330253175E+01  1.140316113E+02  1.265116581E+02  1.057000000E-01  0.00000E+00  9.000E+00
       2     1     1     2   511     0 -4.953193260E-01  1.130183427E+01  1.409910677E+01  1.807956058E+01  3.300000000E-01  0.00000E+00  9.000E+00
      -1     1     1     2     0   502  2.131282306E+01  1.089619899E+01 -1.827880425E+01  3.011954787E+01  3.300000000E-01  0.00000E+00  9.000E+00
      21     1     1     2   501   511 -2.480943712E+01  8.650743997E+00 -1.391160372E+02  1.415754758E+02  4.672030912E-06  0.00000E+00  9.000E+00
</event>
<event>
      8  10001  1.11566E-02  1.98000E+02 -1.00000E+00  1.13742E-01
      -4    -1     0     0     0   501  0.000000000E+00  0.000000000E+00  1.475068221E+02  1.475068221E+02  0.000000000E+00  0.00000E+00  9.000E+00
      -2    -1     0     0     0   502  0.000000000E+00  0.000000000E+00 -5.793340563E+02  5.793340563E+02  0.000000000E+00  0.00000E+00  9.000E+00
      23     2     1     2     0     0  6.570237057E+01 -7.698522710E+01  2.610070279E+01  1.387084162E+02  9.118800000E+01  0.00000E+00  9.000E+00
     -13     1     3     3     0     0  3.143049602E+01 -9.085711371E+01  3.187697159E+01  1.012869374E+02  1.057000000E-01  0.00000E+00  9.000E+00
      13     1     3     3     0     0  3.427187455E+01  1.387188661E+01 -5.776268797E+00  3.742147881E+01  1.057000000E-01  0.00000E+00  9.000E+00
      -4     1     1     2     0   511 -8.034728944E+01  8.539148804E+01 -3.840574026E+02  4.015591260E+02  1.500000000E+00  0.00000E+00  9.000E+00
      -2     1     1     2     0   502  3.223631569E+01 -2.143119175E+01 -1.250525552E+02  1.309073203E+02  3.300000000E-01  0.00000E+00  9.000E+00
      21     1     1     2   511   501 -1.759139681E+01  1.302493082E+01  5.118202087E+01  5.566601589E+01  2.939421655E-06  0.00000E+00  9.000E+00
</event>
<event>
      8  10001  1.07133E-02  3.51962E+02 -1.00000E+00  1.05033E-01
      -3    -1     0     0     0   501  0.000000000E+00  0.000000000E+00  7.521389479E+02  7.521389479E+02  0.000000000E+00  0.00000E+00  9.000E+00
       1    -1     0     0   502     0  0.000000000E+00  0.000000000E+00 -4.756862474E+02  4.756862474E+02  0.000000000E+00  0.00000E+00  9.000E+00
      23     2     1     2     0     0 -1.982625602E+02 -1.781286110E+02 -3.754634536E+02  4.693888592E+02  9.118800000E+01  0.00000E+00  9.000E+00
     -13     1     3     3     0     0 -1.398280537E+02 -1.588637487E+02 -2.362272678E+02  3.171638512E+02  1.057000000E-01  0.00000E+00  9.000E+00
      13     1     3     3     0     0 -5.843450642E+01 -1.926486227E+01 -1.392361858E+02  1.522250080E+02  1.057000000E-01  0.00000E+00  9.000E+00
      -4     1     1     2     0   501  1.397782773E+02  9.864735165E+01  4.902728498E+02  5.192677383E+02  1.500000000E+00  0.00000E+00  9.000E+00
       2     1     1     2   511     0 -5.723143574E+00 -1.107359779E+01 -2.159000410E+01  2.493223050E+01  3.300000000E-01  0.00000E+00  9.000E+00
      21     1     1     2   502   511  6.420742644E+01  9.055485715E+01  1.832333084E+02  2.142363673E+02  6.031565972E-06  0.00000E+00  9.000E+00
</event>
<event>
      8  10001  2.39710E-02  1.07068E+02 -1.00000E+00  1.24844E-01
      -2    -1     0     0     0   501  0.000000000E+00  0.000000000E+00  8.563481959E+02  8.563481959E+02  0.000000000E+00  0.00000E+00  9.000E+00
      21    -1     0     0   502   512  0.000000000E+00  0.000000000E+00 -2.644479243E+02  2.644479243E+02  0.000000000E+00  0.00000E+00  9.000E+00
      23     2     1     2     0     0 -9.457310347E+01 -1.778409719E+01  6.849279363E+02  6.976402191E+02  9.118800000E+01  0.00000E+00  9.000E+00
     -13     1     3     3     0     0  6.843913893E+00  2.241264904E+01  1.142674829E+02  1.166457664E+02  1.057000000E-01  0.00000E+00  9.000E+00
      13     1     3     3     0     0 -1.014170174E+02 -4.019674623E+01  5.706604534E+02  5.809944527E+02  1.057000000E-01  0.00000E+00  9.000E+00
      -1     1     1     2     0   501  1.455264224E+02  1.003488918E+02  9.115382988E+01  1.988893393E+02  3.300000000E-01  0.00000E+00  9.000E+00
       3     1     1     2   502     0  1.789960400E+01 -5.734759646E-01 -1.219939342E+01  2.167486788E+01  5.000000000E-01  0.00000E+00  9.000E+00
      -4     1     1     2     0   512 -6.885292292E+01 -8.199131866E+01 -1.719821011E+02  2.025916939E+02  1.500000000E+00  0.00000E+00  9.000E+00
</event>
<event>
      8  10001  1.14166E-02  1.27456E+02 -1.00000E+00  1.21478E-01
       1    -1     0     0   501     0  0.000000000E+00  0.000000000E+00  8.653321288E+02  8.653321288E+02  0.000000000E+00  0.00000E+00  9.000E+00
       2    -1     0     0   502     0  0.000000000E+00  0.000000000E+00 -2.456680016E+01  2.456680016E+01  0.000000000E+00  0.00000E+00  9.000E+00
      23     2     1     2     0     0  6.850267173E+01 -8.051146105E+01  3.585423433E+02  3.847630111E+02  9.118800000E+01  0.00000E+00  9.000E+00
     -13     1     3     3     0     0  6.691528026E+01 -9.527991139E+01  2.570441329E+02  2.821836524E+02  1.057000000E-01  0.00000E+00  9.000E+00
      13     1     3     3     0     0  1.587391466E+00  1.476845034E+01  1.014982104E+02  1.025793587E+02  1.057000000E-01  0.00000E+00  9.000E+00
       1     1     1     2   501     0 -1.072605818E+01  7.096181508E+01  1.697875692E+02  1.843327293E+02  3.300000000E-01  0.00000E+00  9.000E+00
       2     1     1     2   511     0  1.417047212E+00  4.296088766E-01 -9.208312483E-01  1.774659623E+00  3.300000000E-01  0.00000E+00  9.000E+00
      21     1     1     2   502   511 -5.919366076E+01  9.120037096E+00  3.133562474E+02  3.190285290E+02  8.529922400E-06  0.00000E+00  9.000E+00
</event>
</LesHouchesEvents>
 #Random number generator exit values:           10        237442             0
